
     Program PWSCF v.6.1 (svn rev. 13369) starts on  7Apr2021 at 15:50:13 

     This program is part of the open-source Quantum ESPRESSO suite
     for quantum simulation of materials; please cite
         "P. Giannozzi et al., J. Phys.:Condens. Matter 21 395502 (2009);
          URL http://www.quantum-espresso.org", 
     in publications or presentations arising from this work. More details at
     http://www.quantum-espresso.org/quote

     Parallel version (MPI), running on     1 processors
     Waiting for input...
     Reading input from standard input

     Current dimensions of program PWSCF are:
     Max number of different atomic species (ntypx) = 10
     Max number of k-points (npk) =  40000
     Max angular momentum in pseudopotentials (lmaxx) =  3
               file C.pbe-n-kjpaw_psl.1.0.0.UPF: wavefunction(s)  2S 2P renormalized
               file O.pbe-n-kjpaw_psl.0.1.UPF: wavefunction(s)  2P renormalized

     gamma-point specific algorithms are used

     Subspace diagonalization in iterative solution of the eigenvalue problem:
     a serial algorithm will be used

 
     G-vector sticks info
     --------------------
     sticks:   dense  smooth     PW     G-vecs:    dense   smooth      PW
     Sum        2689    1069    265               112707    28527    3547
 


     bravais-lattice index     =            4
     lattice parameter (alat)  =      13.9620  a.u.
     unit-cell volume          =    2357.0757 (a.u.)^3
     number of atoms/cell      =           19
     number of atomic types    =            2
     number of electrons       =        78.00
     number of Kohn-Sham states=           47
     kinetic-energy cutoff     =      20.0000  Ry
     charge density cutoff     =     200.0000  Ry
     convergence threshold     =      1.0E-08
     mixing beta               =       0.7000
     number of iterations used =            8  plain     mixing
     Exchange-correlation      =  SLA  PW   PBX  PBC ( 1  4  3  4 0 0)
     nstep                     =           50


     celldm(1)=  13.962000  celldm(2)=   0.000000  celldm(3)=   1.000000
     celldm(4)=   0.000000  celldm(5)=   0.000000  celldm(6)=   0.000000

     crystal axes: (cart. coord. in units of alat)
               a(1) = (   1.000000   0.000000   0.000000 )  
               a(2) = (  -0.500000   0.866025   0.000000 )  
               a(3) = (   0.000000   0.000000   1.000000 )  

     reciprocal axes: (cart. coord. in units 2 pi/alat)
               b(1) = (  1.000000  0.577350  0.000000 )  
               b(2) = (  0.000000  1.154701  0.000000 )  
               b(3) = (  0.000000  0.000000  1.000000 )  


     PseudoPot. # 1 for  C read from file:
     /home/ajs0201/workQE/pseudo/C.pbe-n-kjpaw_psl.1.0.0.UPF
     MD5 check sum: 5d2aebdfa2cae82b50a7e79e9516da0f
     Pseudo is Projector augmented-wave + core cor, Zval =  4.0
     Generated using "atomic" code by A. Dal Corso  v.5.1
     Shape of augmentation charge: PSQ
     Using radial grid of 1073 points,  4 beta functions with: 
                l(1) =   0
                l(2) =   0
                l(3) =   1
                l(4) =   1
     Q(r) pseudized with 0 coefficients 


     PseudoPot. # 2 for  O read from file:
     /home/ajs0201/workQE/pseudo/O.pbe-n-kjpaw_psl.0.1.UPF
     MD5 check sum: 0234752ac141de4415c5fc33072bef88
     Pseudo is Projector augmented-wave + core cor, Zval =  6.0
     Generated using "atomic" code by A. Dal Corso  v.5.0.99 svn rev. 10869
     Shape of augmentation charge: BESSEL
     Using radial grid of 1095 points,  4 beta functions with: 
                l(1) =   0
                l(2) =   0
                l(3) =   1
                l(4) =   1
     Q(r) pseudized with 0 coefficients 


     atomic species   valence    mass     pseudopotential
        C              4.00    12.01070      C( 1.00)
        O              6.00    16.00000      O( 1.00)

     No symmetry found



   Cartesian axes

     site n.     atom                  positions (alat units)
         1           C   tau(   1) = (   0.0000000   0.0000000   0.0000000  )
         2           C   tau(   2) = (  -0.1666666   0.2886750   0.0000000  )
         3           C   tau(   3) = (  -0.3333332   0.5773500   0.0000000  )
         4           C   tau(   4) = (   0.3333332   0.0000000   0.0000000  )
         5           C   tau(   5) = (   0.1666666   0.2886750   0.0000000  )
         6           C   tau(   6) = (   0.0000000   0.5773500   0.0000000  )
         7           C   tau(   7) = (   0.6666664   0.0000000   0.0000000  )
         8           C   tau(   8) = (   0.4999998   0.2886750   0.0000000  )
         9           C   tau(   9) = (   0.3333332   0.5773500   0.0000000  )
        10           C   tau(  10) = (   0.0000000   0.1924500   0.0000000  )
        11           C   tau(  11) = (  -0.1666666   0.4811250   0.0000000  )
        12           C   tau(  12) = (  -0.3333332   0.7698001   0.0000000  )
        13           C   tau(  13) = (   0.3333332   0.1924500   0.0000000  )
        14           C   tau(  14) = (   0.1666666   0.4811250   0.0000000  )
        15           C   tau(  15) = (   0.0000000   0.7698001   0.0000000  )
        16           C   tau(  16) = (   0.6666664   0.1924500   0.0000000  )
        17           C   tau(  17) = (   0.4999998   0.4811250   0.0000000  )
        18           C   tau(  18) = (   0.3333332   0.7698001   0.0000000  )
        19           O   tau(  19) = (   0.1666768   0.3849238   0.1773056  )

     number of k points=     1  Marzari-Vanderbilt smearing, width (Ry)=  0.0100
                       cart. coord. in units 2pi/alat
        k(    1) = (   0.0000000   0.0000000   0.0000000), wk =   2.0000000

     Dense  grid:    56354 G-vectors     FFT dimensions: (  64,  64,  64)

     Smooth grid:    14264 G-vectors     FFT dimensions: (  40,  40,  40)

     Estimated max dynamical RAM per process >      57.32MB

     Check: negative/imaginary core charge=   -0.000042    0.000000

     Initial potential from superposition of free atoms

     starting charge   77.99925, renormalised to   78.00000
     Starting wfc are   76 randomized atomic wfcs
     Checking if some PAW data can be deallocated... 

     total cpu time spent up to now is        3.4 secs

     per-process dynamical memory:    25.9 Mb

     Self-consistent Calculation

     iteration #  1     ecut=    20.00 Ry     beta=0.70
     Davidson diagonalization with overlap
     ethr =  1.00E-02,  avg # of iterations =  2.0

     negative rho (up, down):  8.451E-07 0.000E+00

     total cpu time spent up to now is        4.3 secs

     total energy              =    -370.81020688 Ry
     Harris-Foulkes estimate   =    -371.96360570 Ry
     estimated scf accuracy    <       1.84882712 Ry

     iteration #  2     ecut=    20.00 Ry     beta=0.70
     Davidson diagonalization with overlap
     ethr =  2.37E-03,  avg # of iterations =  3.0

     negative rho (up, down):  3.262E-04 0.000E+00

     total cpu time spent up to now is        5.2 secs

     total energy              =    -370.83037508 Ry
     Harris-Foulkes estimate   =    -371.55572394 Ry
     estimated scf accuracy    <       1.25436606 Ry

     iteration #  3     ecut=    20.00 Ry     beta=0.70
     Davidson diagonalization with overlap
     ethr =  1.61E-03,  avg # of iterations =  5.0

     negative rho (up, down):  7.597E-04 0.000E+00

     total cpu time spent up to now is        6.0 secs

     total energy              =    -370.94299628 Ry
     Harris-Foulkes estimate   =    -371.39523118 Ry
     estimated scf accuracy    <       1.32892825 Ry

     iteration #  4     ecut=    20.00 Ry     beta=0.70
     Davidson diagonalization with overlap
     ethr =  1.61E-03,  avg # of iterations =  2.0

     negative rho (up, down):  2.848E-05 0.000E+00

     total cpu time spent up to now is        6.8 secs

     total energy              =    -371.23929632 Ry
     Harris-Foulkes estimate   =    -371.26689090 Ry
     estimated scf accuracy    <       0.10189065 Ry

     iteration #  5     ecut=    20.00 Ry     beta=0.70
     Davidson diagonalization with overlap
     ethr =  1.31E-04,  avg # of iterations =  2.0

     negative rho (up, down):  2.839E-05 0.000E+00

     total cpu time spent up to now is        7.6 secs

     total energy              =    -371.24120757 Ry
     Harris-Foulkes estimate   =    -371.24704278 Ry
     estimated scf accuracy    <       0.01707274 Ry

     iteration #  6     ecut=    20.00 Ry     beta=0.70
     Davidson diagonalization with overlap
     ethr =  2.19E-05,  avg # of iterations =  3.0

     negative rho (up, down):  2.603E-05 0.000E+00

     total cpu time spent up to now is        8.4 secs

     total energy              =    -371.24301388 Ry
     Harris-Foulkes estimate   =    -371.24388668 Ry
     estimated scf accuracy    <       0.00202232 Ry

     iteration #  7     ecut=    20.00 Ry     beta=0.70
     Davidson diagonalization with overlap
     ethr =  2.59E-06,  avg # of iterations =  5.0

     negative rho (up, down):  3.198E-05 0.000E+00

     total cpu time spent up to now is        9.2 secs

     total energy              =    -371.24323286 Ry
     Harris-Foulkes estimate   =    -371.24367641 Ry
     estimated scf accuracy    <       0.00195235 Ry

     iteration #  8     ecut=    20.00 Ry     beta=0.70
     Davidson diagonalization with overlap
     ethr =  2.50E-06,  avg # of iterations =  1.0

     negative rho (up, down):  2.408E-05 0.000E+00

     total cpu time spent up to now is       10.0 secs

     total energy              =    -371.24342450 Ry
     Harris-Foulkes estimate   =    -371.24356890 Ry
     estimated scf accuracy    <       0.00067809 Ry

     iteration #  9     ecut=    20.00 Ry     beta=0.70
     Davidson diagonalization with overlap
     ethr =  8.69E-07,  avg # of iterations =  1.0

     negative rho (up, down):  2.294E-05 0.000E+00

     total cpu time spent up to now is       10.8 secs

     total energy              =    -371.24349013 Ry
     Harris-Foulkes estimate   =    -371.24349226 Ry
     estimated scf accuracy    <       0.00000480 Ry

     iteration # 10     ecut=    20.00 Ry     beta=0.70
     Davidson diagonalization with overlap
     ethr =  6.16E-09,  avg # of iterations =  3.0

     negative rho (up, down):  2.281E-05 0.000E+00

     total cpu time spent up to now is       11.6 secs

     total energy              =    -371.24349278 Ry
     Harris-Foulkes estimate   =    -371.24349341 Ry
     estimated scf accuracy    <       0.00000153 Ry

     iteration # 11     ecut=    20.00 Ry     beta=0.70
     Davidson diagonalization with overlap
     ethr =  1.96E-09,  avg # of iterations =  2.0

     negative rho (up, down):  2.281E-05 0.000E+00

     total cpu time spent up to now is       12.4 secs

     total energy              =    -371.24349303 Ry
     Harris-Foulkes estimate   =    -371.24349324 Ry
     estimated scf accuracy    <       0.00000046 Ry

     iteration # 12     ecut=    20.00 Ry     beta=0.70
     Davidson diagonalization with overlap
     ethr =  5.96E-10,  avg # of iterations =  2.0

     negative rho (up, down):  2.281E-05 0.000E+00

     total cpu time spent up to now is       13.2 secs

     total energy              =    -371.24349313 Ry
     Harris-Foulkes estimate   =    -371.24349315 Ry
     estimated scf accuracy    <       0.00000005 Ry

     iteration # 13     ecut=    20.00 Ry     beta=0.70
     Davidson diagonalization with overlap
     ethr =  6.53E-11,  avg # of iterations =  2.0

     negative rho (up, down):  2.281E-05 0.000E+00

     total cpu time spent up to now is       14.0 secs

     total energy              =    -371.24349314 Ry
     Harris-Foulkes estimate   =    -371.24349314 Ry
     estimated scf accuracy    <       0.00000002 Ry

     iteration # 14     ecut=    20.00 Ry     beta=0.70
     Davidson diagonalization with overlap
     ethr =  2.15E-11,  avg # of iterations =  2.0

     negative rho (up, down):  2.281E-05 0.000E+00

     total cpu time spent up to now is       14.8 secs

     End of self-consistent calculation

          k = 0.0000 0.0000 0.0000 (  1774 PWs)   bands (ev):

   -23.2697 -18.4293 -16.4553 -16.1680 -16.1410 -16.1221 -16.0934 -15.0134
   -12.1556 -11.8213 -11.7025 -11.6759  -9.8206  -9.7514  -9.1011  -8.9668
    -8.8488  -8.7571  -8.6352  -8.5558  -6.4571  -5.6290  -5.4575  -5.0657
    -4.8955  -4.6997  -4.6767  -4.6434  -4.3489  -3.8077  -3.5261  -3.4975
    -3.4869  -2.0191  -1.9438  -1.8218  -0.9492  -0.1050   1.2134   1.3119
     2.2669   3.9064   4.0471   6.1464   6.1736   6.2022   6.3402

     the Fermi energy is     1.2783 ev

!    total energy              =    -371.24349314 Ry
     Harris-Foulkes estimate   =    -371.24349314 Ry
     estimated scf accuracy    <          2.3E-09 Ry

     total all-electron energy =     -1519.844146 Ry

     The total energy is the sum of the following terms:

     one-electron contribution =    -558.11180134 Ry
     hartree contribution      =     303.30509547 Ry
     xc contribution           =     -90.63627609 Ry
     ewald contribution        =      94.80133606 Ry
     one-center paw contrib.   =    -120.59704249 Ry
     smearing contrib. (-TS)   =      -0.00480475 Ry

     convergence has been achieved in  14 iterations

     negative rho (up, down):  2.281E-05 0.000E+00

     Forces acting on atoms (cartesian axes, Ry/au):

     atom    1 type  1   force =    -0.01663736   -0.01371243   -0.00111465
     atom    2 type  1   force =     0.05649613   -0.03590417   -0.00643522
     atom    3 type  1   force =    -0.00026734    0.05073535    0.00010728
     atom    4 type  1   force =     0.01670816   -0.01338167   -0.00111223
     atom    5 type  1   force =     0.00029533   -0.03939997    0.01047871
     atom    6 type  1   force =    -0.11133569    0.00760734   -0.03239726
     atom    7 type  1   force =    -0.00008513    0.04699752   -0.00741731
     atom    8 type  1   force =    -0.05681377   -0.03580184   -0.00645032
     atom    9 type  1   force =     0.11155976    0.00738871   -0.03240782
     atom   10 type  1   force =    -0.11129671   -0.00737528   -0.03236346
     atom   11 type  1   force =     0.05715742    0.03598137   -0.00642749
     atom   12 type  1   force =     0.00018367   -0.04679374   -0.00741461
     atom   13 type  1   force =     0.11115199   -0.00768110   -0.03239371
     atom   14 type  1   force =    -0.00027849    0.03959527    0.01038516
     atom   15 type  1   force =    -0.01662334    0.01332845   -0.00111262
     atom   16 type  1   force =     0.00018069   -0.05107665    0.00011403
     atom   17 type  1   force =    -0.05682579    0.03599630   -0.00644050
     atom   18 type  1   force =     0.01645517    0.01361639   -0.00111825
     atom   19 type  2   force =    -0.00002469   -0.00011986    0.15352030

     Total force =     0.332693     Total SCF correction =     0.000128

     BFGS Geometry Optimization

     number of scf cycles    =   1
     number of bfgs steps    =   0

     energy   new            =    -371.2434931373 Ry

     new trust radius        =       0.1535203439 bohr
     new conv_thr            =       0.0000000100 Ry


ATOMIC_POSITIONS (angstrom)
C       -0.008804114  -0.007256305  -0.000589849
C       -1.201498416   2.113838819  -0.003405373
C       -2.462931229   4.292524979   0.000056769
C        2.471631336  -0.007081275  -0.000588569
C        1.231551160   2.111988925   0.005545095
C       -0.058916311   4.269702619  -0.017143892
C        4.925534472   0.024870019  -0.003925069
C        3.664120086   2.113892970  -0.003413363
C        2.521824643   4.269586927  -0.017149481
C       -0.058895683   1.417989579  -0.017126006
C       -1.201148478   3.573771422  -0.003401281
C       -2.462692566   5.662807210  -0.003923644
C        2.521608859   1.417827747  -0.017142015
C        1.231247510   3.575683816   0.005495591
C       -0.008796694   5.694622503  -0.000588773
C        4.925675137   1.394863811   0.000060342
C        3.664113729   3.573779322  -0.003408168
C        2.471497463   5.694774874  -0.000591754
O        1.231456935   2.843896575   1.391239441



     Writing output data file Graphene3x3-O_PBE.save
     NEW-OLD atomic charge density approx. for the potential

     Check: negative/imaginary core charge=   -0.000042    0.000000

     negative rho (up, down):  2.684E-05 0.000E+00

     total cpu time spent up to now is       16.4 secs

     per-process dynamical memory:    30.5 Mb

     Self-consistent Calculation

     iteration #  1     ecut=    20.00 Ry     beta=0.70
     Davidson diagonalization with overlap
     ethr =  1.00E-06,  avg # of iterations = 11.0

     negative rho (up, down):  1.915E-05 0.000E+00

     total cpu time spent up to now is       17.4 secs

     total energy              =    -371.25958981 Ry
     Harris-Foulkes estimate   =    -371.25622309 Ry
     estimated scf accuracy    <       0.04418182 Ry

     iteration #  2     ecut=    20.00 Ry     beta=0.70
     Davidson diagonalization with overlap
     ethr =  5.66E-05,  avg # of iterations =  3.0

     negative rho (up, down):  1.421E-04 0.000E+00

     total cpu time spent up to now is       18.2 secs

     total energy              =    -371.26401265 Ry
     Harris-Foulkes estimate   =    -371.27715307 Ry
     estimated scf accuracy    <       0.02317461 Ry

     iteration #  3     ecut=    20.00 Ry     beta=0.70
     Davidson diagonalization with overlap
     ethr =  2.97E-05,  avg # of iterations =  3.0

     negative rho (up, down):  1.119E-04 0.000E+00

     total cpu time spent up to now is       19.0 secs

     total energy              =    -371.26862743 Ry
     Harris-Foulkes estimate   =    -371.27505263 Ry
     estimated scf accuracy    <       0.01639299 Ry

     iteration #  4     ecut=    20.00 Ry     beta=0.70
     Davidson diagonalization with overlap
     ethr =  2.10E-05,  avg # of iterations =  2.0

     negative rho (up, down):  2.995E-05 0.000E+00

     total cpu time spent up to now is       19.8 secs

     total energy              =    -371.27171700 Ry
     Harris-Foulkes estimate   =    -371.27202669 Ry
     estimated scf accuracy    <       0.00080009 Ry

     iteration #  5     ecut=    20.00 Ry     beta=0.70
     Davidson diagonalization with overlap
     ethr =  1.03E-06,  avg # of iterations =  2.0

     negative rho (up, down):  2.348E-05 0.000E+00

     total cpu time spent up to now is       20.6 secs

     total energy              =    -371.27189168 Ry
     Harris-Foulkes estimate   =    -371.27193946 Ry
     estimated scf accuracy    <       0.00009792 Ry

     iteration #  6     ecut=    20.00 Ry     beta=0.70
     Davidson diagonalization with overlap
     ethr =  1.26E-07,  avg # of iterations =  2.0

     negative rho (up, down):  2.294E-05 0.000E+00

     total cpu time spent up to now is       21.4 secs

     total energy              =    -371.27191497 Ry
     Harris-Foulkes estimate   =    -371.27191895 Ry
     estimated scf accuracy    <       0.00000899 Ry

     iteration #  7     ecut=    20.00 Ry     beta=0.70
     Davidson diagonalization with overlap
     ethr =  1.15E-08,  avg # of iterations =  2.0

     negative rho (up, down):  2.281E-05 0.000E+00

     total cpu time spent up to now is       22.2 secs

     total energy              =    -371.27191716 Ry
     Harris-Foulkes estimate   =    -371.27191727 Ry
     estimated scf accuracy    <       0.00000046 Ry

     iteration #  8     ecut=    20.00 Ry     beta=0.70
     Davidson diagonalization with overlap
     ethr =  5.85E-10,  avg # of iterations =  2.0

     negative rho (up, down):  2.281E-05 0.000E+00

     total cpu time spent up to now is       23.0 secs

     total energy              =    -371.27191725 Ry
     Harris-Foulkes estimate   =    -371.27191729 Ry
     estimated scf accuracy    <       0.00000008 Ry

     iteration #  9     ecut=    20.00 Ry     beta=0.70
     Davidson diagonalization with overlap
     ethr =  9.72E-11,  avg # of iterations =  2.0

     negative rho (up, down):  2.281E-05 0.000E+00

     total cpu time spent up to now is       23.8 secs

     total energy              =    -371.27191726 Ry
     Harris-Foulkes estimate   =    -371.27191727 Ry
     estimated scf accuracy    <       0.00000003 Ry

     iteration # 10     ecut=    20.00 Ry     beta=0.70
     Davidson diagonalization with overlap
     ethr =  3.39E-11,  avg # of iterations =  2.0

     negative rho (up, down):  2.282E-05 0.000E+00

     total cpu time spent up to now is       24.6 secs

     End of self-consistent calculation

          k = 0.0000 0.0000 0.0000 (  1774 PWs)   bands (ev):

   -21.8769 -18.5060 -16.4358 -16.4242 -16.3894 -16.1524 -15.9353 -14.9685
   -12.0947 -11.7980 -11.6925 -11.6544  -9.8098  -9.4862  -9.2433  -9.0036
    -8.7702  -8.7289  -8.6029  -8.5460  -6.4869  -5.3636  -5.2149  -5.0181
    -4.9015  -4.8179  -4.6982  -4.4756  -4.0894  -3.9175  -3.7225  -3.6504
    -3.3232  -1.9749  -1.9197  -1.7204  -0.7080  -0.3273   0.8242   1.5751
     2.4675   3.9005   3.9207   5.7345   6.2604   6.4911   6.4961

     the Fermi energy is     0.9496 ev

!    total energy              =    -371.27191727 Ry
     Harris-Foulkes estimate   =    -371.27191727 Ry
     estimated scf accuracy    <          2.7E-09 Ry

     total all-electron energy =     -1519.872570 Ry

     The total energy is the sum of the following terms:

     one-electron contribution =    -551.37032769 Ry
     hartree contribution      =     300.03474163 Ry
     xc contribution           =     -90.60309914 Ry
     ewald contribution        =      91.26846912 Ry
     one-center paw contrib.   =    -120.60333217 Ry
     smearing contrib. (-TS)   =       0.00163099 Ry

     convergence has been achieved in  10 iterations

     negative rho (up, down):  2.282E-05 0.000E+00

     Forces acting on atoms (cartesian axes, Ry/au):

     atom    1 type  1   force =    -0.02316672   -0.04116344   -0.00443091
     atom    2 type  1   force =    -0.07992866    0.02087375   -0.00730103
     atom    3 type  1   force =     0.00048568   -0.07364944    0.00101540
     atom    4 type  1   force =     0.02327977   -0.04151774   -0.00445190
     atom    5 type  1   force =    -0.00042903    0.03941072    0.08407488
     atom    6 type  1   force =     0.08960506    0.00732469   -0.02111129
     atom    7 type  1   force =    -0.00023858   -0.06962097   -0.00459214
     atom    8 type  1   force =     0.08091656    0.02085456   -0.00733665
     atom    9 type  1   force =    -0.09049167    0.00795572   -0.02131047
     atom   10 type  1   force =     0.08964430   -0.00806204   -0.02135243
     atom   11 type  1   force =    -0.08147203   -0.02115094   -0.00735593
     atom   12 type  1   force =     0.00015214    0.06928811   -0.00457633
     atom   13 type  1   force =    -0.08897655   -0.00723696   -0.02111166
     atom   14 type  1   force =     0.00043854   -0.03940039    0.08419308
     atom   15 type  1   force =    -0.02323603    0.04165515   -0.00441758
     atom   16 type  1   force =    -0.00041607    0.07419723    0.00100432
     atom   17 type  1   force =     0.08040502   -0.02110366   -0.00734866
     atom   18 type  1   force =     0.02341436    0.04132890   -0.00441168
     atom   19 type  2   force =     0.00001394    0.00001675   -0.02917902

     Total force =     0.331763     Total SCF correction =     0.000115

     number of scf cycles    =   2
     number of bfgs steps    =   1

     energy   old            =    -371.2434931373 Ry
     energy   new            =    -371.2719172669 Ry

     CASE: energy  _new < energy  _old

     new trust radius        =       0.0547965372 bohr
     new conv_thr            =       0.0000000090 Ry


ATOMIC_POSITIONS (angstrom)
C       -0.017869678  -0.021722325  -0.002109560
C       -1.220976265   2.116734433  -0.006385882
C       -2.462805003   4.274440313   0.000389680
C        2.480740059  -0.021625314  -0.002114681
C        1.231445787   2.120397072   0.033275502
C       -0.042053179   4.272812057  -0.027190767
C        4.925450042   0.007674811  -0.006148828
C        3.683878110   2.116793103  -0.006406727
C        2.504703741   4.272873702  -0.027260575
C       -0.042016078   1.414670503  -0.027245801
C       -1.221046939   3.570795959  -0.006398390
C       -2.462625324   5.679918042  -0.006142112
C        2.504925880   1.414738468  -0.027188641
C        1.231357641   3.567299178   0.033253766
C       -0.017882771   5.709204576  -0.002104049
C        4.925561996   1.413086723   0.000390441
C        3.683708392   3.570820390  -0.006404319
C        2.480622632   5.709283384  -0.002105744
O        1.231458796   2.843889466   1.397896687



     Writing output data file Graphene3x3-O_PBE.save
     NEW-OLD atomic charge density approx. for the potential

     Check: negative/imaginary core charge=   -0.000042    0.000000

     negative rho (up, down):  2.363E-05 0.000E+00

     total cpu time spent up to now is       26.1 secs

     per-process dynamical memory:    31.0 Mb

     Self-consistent Calculation

     iteration #  1     ecut=    20.00 Ry     beta=0.70
     Davidson diagonalization with overlap
     ethr =  1.00E-06,  avg # of iterations =  7.0

     negative rho (up, down):  2.169E-05 0.000E+00

     total cpu time spent up to now is       27.0 secs

     total energy              =    -371.29441381 Ry
     Harris-Foulkes estimate   =    -371.30224120 Ry
     estimated scf accuracy    <       0.00765519 Ry

     iteration #  2     ecut=    20.00 Ry     beta=0.70
     Davidson diagonalization with overlap
     ethr =  9.81E-06,  avg # of iterations =  3.0

     negative rho (up, down):  6.821E-05 0.000E+00

     total cpu time spent up to now is       27.8 secs

     total energy              =    -371.29475229 Ry
     Harris-Foulkes estimate   =    -371.29861918 Ry
     estimated scf accuracy    <       0.00767937 Ry

     iteration #  3     ecut=    20.00 Ry     beta=0.70
     Davidson diagonalization with overlap
     ethr =  9.81E-06,  avg # of iterations =  2.0

     negative rho (up, down):  4.894E-05 0.000E+00

     total cpu time spent up to now is       28.6 secs

     total energy              =    -371.29634813 Ry
     Harris-Foulkes estimate   =    -371.29744468 Ry
     estimated scf accuracy    <       0.00281651 Ry

     iteration #  4     ecut=    20.00 Ry     beta=0.70
     Davidson diagonalization with overlap
     ethr =  3.61E-06,  avg # of iterations =  2.0

     negative rho (up, down):  2.523E-05 0.000E+00

     total cpu time spent up to now is       29.4 secs

     total energy              =    -371.29689335 Ry
     Harris-Foulkes estimate   =    -371.29695907 Ry
     estimated scf accuracy    <       0.00016250 Ry

     iteration #  5     ecut=    20.00 Ry     beta=0.70
     Davidson diagonalization with overlap
     ethr =  2.08E-07,  avg # of iterations =  2.0

     negative rho (up, down):  2.342E-05 0.000E+00

     total cpu time spent up to now is       30.2 secs

     total energy              =    -371.29692302 Ry
     Harris-Foulkes estimate   =    -371.29694835 Ry
     estimated scf accuracy    <       0.00005890 Ry

     iteration #  6     ecut=    20.00 Ry     beta=0.70
     Davidson diagonalization with overlap
     ethr =  7.55E-08,  avg # of iterations =  2.0

     negative rho (up, down):  2.278E-05 0.000E+00

     total cpu time spent up to now is       31.0 secs

     total energy              =    -371.29693507 Ry
     Harris-Foulkes estimate   =    -371.29693563 Ry
     estimated scf accuracy    <       0.00000162 Ry

     iteration #  7     ecut=    20.00 Ry     beta=0.70
     Davidson diagonalization with overlap
     ethr =  2.08E-09,  avg # of iterations =  3.0

     negative rho (up, down):  2.270E-05 0.000E+00

     total cpu time spent up to now is       31.8 secs

     total energy              =    -371.29693547 Ry
     Harris-Foulkes estimate   =    -371.29693563 Ry
     estimated scf accuracy    <       0.00000032 Ry

     iteration #  8     ecut=    20.00 Ry     beta=0.70
     Davidson diagonalization with overlap
     ethr =  4.10E-10,  avg # of iterations =  3.0

     negative rho (up, down):  2.267E-05 0.000E+00

     total cpu time spent up to now is       32.6 secs

     total energy              =    -371.29693556 Ry
     Harris-Foulkes estimate   =    -371.29693557 Ry
     estimated scf accuracy    <       0.00000004 Ry

     iteration #  9     ecut=    20.00 Ry     beta=0.70
     Davidson diagonalization with overlap
     ethr =  5.53E-11,  avg # of iterations =  2.0

     negative rho (up, down):  2.267E-05 0.000E+00

     total cpu time spent up to now is       33.4 secs

     End of self-consistent calculation

          k = 0.0000 0.0000 0.0000 (  1774 PWs)   bands (ev):

   -22.1790 -18.5264 -16.4200 -16.3062 -16.2471 -16.1468 -16.0885 -14.9629
   -12.0199 -11.8543 -11.7152 -11.6680  -9.7651  -9.5828  -9.0984  -8.9288
    -8.8282  -8.7287  -8.7149  -8.5511  -6.4826  -5.5271  -5.0680  -4.9986
    -4.9884  -4.8226  -4.6587  -4.6234  -4.0878  -3.7534  -3.7388  -3.5966
    -3.4852  -2.1018  -1.8426  -1.7931  -0.8052  -0.1769   0.8715   1.5453
     2.3023   3.8741   3.9080   6.0568   6.1808   6.3021   6.4204

     the Fermi energy is     0.9968 ev

!    total energy              =    -371.29693556 Ry
     Harris-Foulkes estimate   =    -371.29693557 Ry
     estimated scf accuracy    <          4.6E-09 Ry

     total all-electron energy =     -1519.897589 Ry

     The total energy is the sum of the following terms:

     one-electron contribution =    -551.15360234 Ry
     hartree contribution      =     299.88967080 Ry
     xc contribution           =     -90.59169593 Ry
     ewald contribution        =      91.15665895 Ry
     one-center paw contrib.   =    -120.59959804 Ry
     smearing contrib. (-TS)   =       0.00163099 Ry

     convergence has been achieved in   9 iterations

     negative rho (up, down):  2.267E-05 0.000E+00

     Forces acting on atoms (cartesian axes, Ry/au):

     atom    1 type  1   force =     0.03065180    0.02278505   -0.00613353
     atom    2 type  1   force =     0.00962815   -0.00094721   -0.00842393
     atom    3 type  1   force =    -0.00021486    0.01901475   -0.00211060
     atom    4 type  1   force =    -0.03046043    0.02311167   -0.00615010
     atom    5 type  1   force =     0.00035819    0.00326179    0.05494919
     atom    6 type  1   force =     0.00651562   -0.01282170   -0.01275560
     atom    7 type  1   force =     0.00014628    0.02123711   -0.00361639
     atom    8 type  1   force =    -0.00985226   -0.00062743   -0.00851658
     atom    9 type  1   force =    -0.00651493   -0.01292888   -0.01274979
     atom   10 type  1   force =     0.00669382    0.01270058   -0.01289885
     atom   11 type  1   force =     0.01012758    0.00084932   -0.00853374
     atom   12 type  1   force =    -0.00009372   -0.02098150   -0.00357732
     atom   13 type  1   force =    -0.00682184    0.01260957   -0.01291599
     atom   14 type  1   force =    -0.00038309   -0.00327853    0.05511774
     atom   15 type  1   force =     0.03036755   -0.02317206   -0.00613441
     atom   16 type  1   force =     0.00020358   -0.01915928   -0.00210842
     atom   17 type  1   force =    -0.00992029    0.00116535   -0.00846492
     atom   18 type  1   force =    -0.03041851   -0.02279701   -0.00608964
     atom   19 type  2   force =    -0.00001265   -0.00002159    0.01111289

     Total force =     0.126495     Total SCF correction =     0.000156

     number of scf cycles    =   3
     number of bfgs steps    =   2

     energy   old            =    -371.2719172669 Ry
     energy   new            =    -371.2969355639 Ry

     CASE: energy  _new < energy  _old

     new trust radius        =       0.0722558593 bohr
     new conv_thr            =       0.0000000055 Ry


ATOMIC_POSITIONS (angstrom)
C       -0.004991891  -0.014749181  -0.005806311
C       -1.222554131   2.117232466  -0.011761542
C       -2.462874016   4.278209325  -0.000594627
C        2.467976167  -0.014508916  -0.005822198
C        1.231596253   2.124937805   0.071143696
C       -0.032945889   4.267195246  -0.037182864
C        4.925497650   0.012899089  -0.008772299
C        3.685433984   2.117458707  -0.011834831
C        2.495509978   4.267260991  -0.037271257
C       -0.032810702   1.420153756  -0.037336856
C       -1.222507213   3.570220183  -0.011836677
C       -2.462651458   5.674798054  -0.008743508
C        2.495720239   1.420251913  -0.037263964
C        1.231195836   3.562757572   0.071218896
C       -0.005159539   5.702069630  -0.005799771
C        4.925629587   1.409289310  -0.000593679
C        3.685173964   3.570414319  -0.011806533
C        2.467886158   5.702318364  -0.005777774
O        1.231452865   2.843875909   1.405842098



     Writing output data file Graphene3x3-O_PBE.save
     NEW-OLD atomic charge density approx. for the potential

     Check: negative/imaginary core charge=   -0.000042    0.000000

     negative rho (up, down):  2.371E-05 0.000E+00

     total cpu time spent up to now is       34.9 secs

     per-process dynamical memory:    31.0 Mb

     Self-consistent Calculation

     iteration #  1     ecut=    20.00 Ry     beta=0.70
     Davidson diagonalization with overlap
     ethr =  1.00E-06,  avg # of iterations =  9.0

     negative rho (up, down):  2.246E-05 0.000E+00

     total cpu time spent up to now is       35.8 secs

     total energy              =    -371.30394388 Ry
     Harris-Foulkes estimate   =    -371.30693915 Ry
     estimated scf accuracy    <       0.00304460 Ry

     iteration #  2     ecut=    20.00 Ry     beta=0.70
     Davidson diagonalization with overlap
     ethr =  3.90E-06,  avg # of iterations =  3.0

     negative rho (up, down):  4.138E-05 0.000E+00

     total cpu time spent up to now is       36.6 secs

     total energy              =    -371.30416838 Ry
     Harris-Foulkes estimate   =    -371.30560401 Ry
     estimated scf accuracy    <       0.00273040 Ry

     iteration #  3     ecut=    20.00 Ry     beta=0.70
     Davidson diagonalization with overlap
     ethr =  3.50E-06,  avg # of iterations =  2.0

     negative rho (up, down):  3.206E-05 0.000E+00

     total cpu time spent up to now is       37.4 secs

     total energy              =    -371.30476589 Ry
     Harris-Foulkes estimate   =    -371.30507863 Ry
     estimated scf accuracy    <       0.00075754 Ry

     iteration #  4     ecut=    20.00 Ry     beta=0.70
     Davidson diagonalization with overlap
     ethr =  9.71E-07,  avg # of iterations =  2.0

     negative rho (up, down):  2.347E-05 0.000E+00

     total cpu time spent up to now is       38.2 secs

     total energy              =    -371.30492391 Ry
     Harris-Foulkes estimate   =    -371.30496347 Ry
     estimated scf accuracy    <       0.00010300 Ry

     iteration #  5     ecut=    20.00 Ry     beta=0.70
     Davidson diagonalization with overlap
     ethr =  1.32E-07,  avg # of iterations =  2.0

     negative rho (up, down):  2.287E-05 0.000E+00

     total cpu time spent up to now is       39.0 secs

     total energy              =    -371.30494095 Ry
     Harris-Foulkes estimate   =    -371.30494817 Ry
     estimated scf accuracy    <       0.00001600 Ry

     iteration #  6     ecut=    20.00 Ry     beta=0.70
     Davidson diagonalization with overlap
     ethr =  2.05E-08,  avg # of iterations =  3.0

     negative rho (up, down):  2.275E-05 0.000E+00

     total cpu time spent up to now is       39.8 secs

     total energy              =    -371.30494491 Ry
     Harris-Foulkes estimate   =    -371.30494551 Ry
     estimated scf accuracy    <       0.00000151 Ry

     iteration #  7     ecut=    20.00 Ry     beta=0.70
     Davidson diagonalization with overlap
     ethr =  1.94E-09,  avg # of iterations =  2.0

     negative rho (up, down):  2.275E-05 0.000E+00

     total cpu time spent up to now is       40.6 secs

     total energy              =    -371.30494522 Ry
     Harris-Foulkes estimate   =    -371.30494535 Ry
     estimated scf accuracy    <       0.00000026 Ry

     iteration #  8     ecut=    20.00 Ry     beta=0.70
     Davidson diagonalization with overlap
     ethr =  3.30E-10,  avg # of iterations =  2.0

     negative rho (up, down):  2.275E-05 0.000E+00

     total cpu time spent up to now is       41.4 secs

     total energy              =    -371.30494529 Ry
     Harris-Foulkes estimate   =    -371.30494529 Ry
     estimated scf accuracy    <       0.00000002 Ry

     iteration #  9     ecut=    20.00 Ry     beta=0.70
     Davidson diagonalization with overlap
     ethr =  2.00E-11,  avg # of iterations =  2.0

     negative rho (up, down):  2.275E-05 0.000E+00

     total cpu time spent up to now is       42.2 secs

     End of self-consistent calculation

          k = 0.0000 0.0000 0.0000 (  1774 PWs)   bands (ev):

   -22.5573 -18.5173 -16.3183 -16.2813 -16.2280 -16.2133 -16.0683 -15.0058
   -11.9214 -11.8999 -11.7073 -11.6772  -9.7466  -9.5748  -9.0349  -8.9422
    -8.8371  -8.7414  -8.7246  -8.6197  -6.4628  -5.6113  -5.1600  -5.1173
    -4.8745  -4.8737  -4.6654  -4.6488  -4.0416  -3.6852  -3.6492  -3.6248
    -3.4559  -2.0335  -1.9370  -1.9121  -0.9125  -0.1759   0.9642   1.4741
     2.2915   3.9053   3.9869   6.0005   6.2276   6.2454   6.3180

     the Fermi energy is     1.0895 ev

!    total energy              =    -371.30494529 Ry
     Harris-Foulkes estimate   =    -371.30494529 Ry
     estimated scf accuracy    <          1.0E-09 Ry

     total all-electron energy =     -1519.905599 Ry

     The total energy is the sum of the following terms:

     one-electron contribution =    -551.47500084 Ry
     hartree contribution      =     300.02073423 Ry
     xc contribution           =     -90.60305858 Ry
     ewald contribution        =      91.34759189 Ry
     one-center paw contrib.   =    -120.59684284 Ry
     smearing contrib. (-TS)   =       0.00163085 Ry

     convergence has been achieved in   9 iterations

     negative rho (up, down):  2.275E-05 0.000E+00

     Forces acting on atoms (cartesian axes, Ry/au):

     atom    1 type  1   force =    -0.02637488   -0.00711782   -0.00749587
     atom    2 type  1   force =     0.02043659   -0.00850151   -0.00827835
     atom    3 type  1   force =     0.00008140    0.00295423   -0.00545626
     atom    4 type  1   force =     0.02619246   -0.00727070   -0.00759693
     atom    5 type  1   force =    -0.00009510   -0.01325648    0.01920237
     atom    6 type  1   force =    -0.01551157   -0.00936872   -0.00503296
     atom    7 type  1   force =    -0.00011689    0.00355612   -0.00286580
     atom    8 type  1   force =    -0.02044455   -0.00848554   -0.00843101
     atom    9 type  1   force =     0.01532957   -0.00947280   -0.00479389
     atom   10 type  1   force =    -0.01544338    0.00981233   -0.00483044
     atom   11 type  1   force =     0.02024257    0.00838607   -0.00842409
     atom   12 type  1   force =     0.00022161   -0.00382044   -0.00281762
     atom   13 type  1   force =     0.01572747    0.00962357   -0.00511584
     atom   14 type  1   force =     0.00005647    0.01331126    0.01890564
     atom   15 type  1   force =    -0.02611777    0.00713113   -0.00759432
     atom   16 type  1   force =    -0.00010765   -0.00276869   -0.00546300
     atom   17 type  1   force =    -0.02027249    0.00841473   -0.00834888
     atom   18 type  1   force =     0.02619489    0.00692968   -0.00748406
     atom   19 type  2   force =     0.00000125   -0.00005642    0.06192131

     Total force =     0.108906     Total SCF correction =     0.000051

     number of scf cycles    =   4
     number of bfgs steps    =   3

     energy   old            =    -371.2969355639 Ry
     energy   new            =    -371.3049452886 Ry

     CASE: energy  _new < energy  _old

     new trust radius        =       0.1009636254 bohr
     new conv_thr            =       0.0000000062 Ry


ATOMIC_POSITIONS (angstrom)
C       -0.010590009  -0.016532474  -0.013809369
C       -1.216483580   2.112820032  -0.022285417
C       -2.462865603   4.279770258  -0.004429427
C        2.473592123  -0.016256848  -0.013892783
C        1.231661886   2.123029737   0.124537223
C       -0.031502883   4.257869131  -0.052779819
C        4.925451798   0.016278902  -0.013580648
C        3.679406224   2.113213819  -0.022495493
C        2.493822488   4.257923340  -0.052770798
C       -0.031233878   1.429551300  -0.052932028
C       -1.216531847   3.574477349  -0.022503324
C       -2.462529879   5.671350857  -0.013503305
C        2.494349801   1.429627067  -0.052983483
C        1.231100099   3.564706702   0.124542819
C       -0.010763332   5.703732109  -0.013855090
C        4.925606581   1.407833214  -0.004432619
C        3.679113401   3.574848953  -0.022398338
C        2.473526522   5.704014032  -0.013750007
O        1.231447929   2.843827063   1.453321906



     Writing output data file Graphene3x3-O_PBE.save
     NEW-OLD atomic charge density approx. for the potential

     Check: negative/imaginary core charge=   -0.000042    0.000000

     negative rho (up, down):  2.433E-05 0.000E+00

     total cpu time spent up to now is       43.7 secs

     per-process dynamical memory:    31.0 Mb

     Self-consistent Calculation

     iteration #  1     ecut=    20.00 Ry     beta=0.70
     Davidson diagonalization with overlap
     ethr =  1.00E-06,  avg # of iterations =  7.0

     negative rho (up, down):  2.106E-05 0.000E+00

     total cpu time spent up to now is       44.6 secs

     total energy              =    -371.31317190 Ry
     Harris-Foulkes estimate   =    -371.30512007 Ry
     estimated scf accuracy    <       0.00416902 Ry

     iteration #  2     ecut=    20.00 Ry     beta=0.70
     Davidson diagonalization with overlap
     ethr =  5.34E-06,  avg # of iterations =  2.0

     negative rho (up, down):  4.761E-05 0.000E+00

     total cpu time spent up to now is       45.4 secs

     total energy              =    -371.31306627 Ry
     Harris-Foulkes estimate   =    -371.31448230 Ry
     estimated scf accuracy    <       0.00255226 Ry

     iteration #  3     ecut=    20.00 Ry     beta=0.70
     Davidson diagonalization with overlap
     ethr =  3.27E-06,  avg # of iterations =  2.0

     negative rho (up, down):  2.541E-05 0.000E+00

     total cpu time spent up to now is       46.2 secs

     total energy              =    -371.31367327 Ry
     Harris-Foulkes estimate   =    -371.31430025 Ry
     estimated scf accuracy    <       0.00166967 Ry

     iteration #  4     ecut=    20.00 Ry     beta=0.70
     Davidson diagonalization with overlap
     ethr =  2.14E-06,  avg # of iterations =  2.0

     negative rho (up, down):  2.156E-05 0.000E+00

     total cpu time spent up to now is       47.0 secs

     total energy              =    -371.31396488 Ry
     Harris-Foulkes estimate   =    -371.31401881 Ry
     estimated scf accuracy    <       0.00011775 Ry

     iteration #  5     ecut=    20.00 Ry     beta=0.70
     Davidson diagonalization with overlap
     ethr =  1.51E-07,  avg # of iterations =  2.0

     negative rho (up, down):  2.133E-05 0.000E+00

     total cpu time spent up to now is       47.8 secs

     total energy              =    -371.31399342 Ry
     Harris-Foulkes estimate   =    -371.31399932 Ry
     estimated scf accuracy    <       0.00001318 Ry

     iteration #  6     ecut=    20.00 Ry     beta=0.70
     Davidson diagonalization with overlap
     ethr =  1.69E-08,  avg # of iterations =  3.0

     negative rho (up, down):  2.142E-05 0.000E+00

     total cpu time spent up to now is       48.6 secs

     total energy              =    -371.31399636 Ry
     Harris-Foulkes estimate   =    -371.31399655 Ry
     estimated scf accuracy    <       0.00000045 Ry

     iteration #  7     ecut=    20.00 Ry     beta=0.70
     Davidson diagonalization with overlap
     ethr =  5.71E-10,  avg # of iterations =  3.0

     negative rho (up, down):  2.143E-05 0.000E+00

     total cpu time spent up to now is       49.4 secs

     total energy              =    -371.31399646 Ry
     Harris-Foulkes estimate   =    -371.31399653 Ry
     estimated scf accuracy    <       0.00000016 Ry

     iteration #  8     ecut=    20.00 Ry     beta=0.70
     Davidson diagonalization with overlap
     ethr =  2.02E-10,  avg # of iterations =  3.0

     negative rho (up, down):  2.144E-05 0.000E+00

     total cpu time spent up to now is       50.2 secs

     total energy              =    -371.31399649 Ry
     Harris-Foulkes estimate   =    -371.31399651 Ry
     estimated scf accuracy    <       0.00000003 Ry

     iteration #  9     ecut=    20.00 Ry     beta=0.70
     Davidson diagonalization with overlap
     ethr =  3.36E-11,  avg # of iterations =  2.0

     negative rho (up, down):  2.144E-05 0.000E+00

     total cpu time spent up to now is       51.0 secs

     End of self-consistent calculation

          k = 0.0000 0.0000 0.0000 (  1774 PWs)   bands (ev):

   -22.5347 -18.5286 -16.3460 -16.2939 -16.2631 -16.1419 -16.0256 -15.0663
   -11.9753 -11.8730 -11.7119 -11.5922  -9.7336  -9.5374  -9.0645  -9.0005
    -8.7856  -8.6954  -8.6916  -8.5736  -6.4585  -5.7006  -5.2250  -5.1879
    -4.9018  -4.8803  -4.6225  -4.5807  -3.9226  -3.6666  -3.6132  -3.6080
    -3.4396  -2.0900  -2.0211  -1.8475  -0.9874  -0.1651   0.8734   1.5509
     2.2764   3.9001   3.9283   5.9366   6.2183   6.2233   6.2858

     the Fermi energy is     0.9987 ev

!    total energy              =    -371.31399650 Ry
     Harris-Foulkes estimate   =    -371.31399650 Ry
     estimated scf accuracy    <          7.2E-10 Ry

     total all-electron energy =     -1519.914650 Ry

     The total energy is the sum of the following terms:

     one-electron contribution =    -548.77848425 Ry
     hartree contribution      =     298.66301199 Ry
     xc contribution           =     -90.58805512 Ry
     ewald contribution        =      89.98401877 Ry
     one-center paw contrib.   =    -120.59611888 Ry
     smearing contrib. (-TS)   =       0.00163099 Ry

     convergence has been achieved in   9 iterations

     negative rho (up, down):  2.144E-05 0.000E+00

     Forces acting on atoms (cartesian axes, Ry/au):

     atom    1 type  1   force =    -0.00192677    0.01192084   -0.01004207
     atom    2 type  1   force =    -0.00022859    0.01417585   -0.00721159
     atom    3 type  1   force =     0.00007297   -0.00517032   -0.01092288
     atom    4 type  1   force =     0.00210304    0.01185127   -0.01036105
     atom    5 type  1   force =    -0.00021454   -0.00307864    0.00253665
     atom    6 type  1   force =    -0.00452062    0.02240578    0.00837386
     atom    7 type  1   force =    -0.00001967   -0.01086486   -0.00313565
     atom    8 type  1   force =     0.00049730    0.01404907   -0.00750606
     atom    9 type  1   force =     0.00460784    0.02238802    0.00849935
     atom   10 type  1   force =    -0.00436156   -0.02223541    0.00855695
     atom   11 type  1   force =    -0.00044557   -0.01404030   -0.00749793
     atom   12 type  1   force =    -0.00000171    0.01091798   -0.00310404
     atom   13 type  1   force =     0.00434235   -0.02230416    0.00843415
     atom   14 type  1   force =     0.00014082    0.00275552    0.00272963
     atom   15 type  1   force =    -0.00185563   -0.01167390   -0.01032768
     atom   16 type  1   force =    -0.00006728    0.00497326   -0.01093980
     atom   17 type  1   force =     0.00014667   -0.01421892   -0.00731544
     atom   18 type  1   force =     0.00172615   -0.01183091   -0.00998863
     atom   19 type  2   force =     0.00000479   -0.00002016    0.05922224

     Total force =     0.091930     Total SCF correction =     0.000063

     number of scf cycles    =   5
     number of bfgs steps    =   4

     energy   old            =    -371.3049452886 Ry
     energy   new            =    -371.3139964999 Ry

     CASE: energy  _new < energy  _old

     new trust radius        =       0.1856709989 bohr
     new conv_thr            =       0.0000000059 Ry


ATOMIC_POSITIONS (angstrom)
C       -0.014252197  -0.008659070  -0.030923257
C       -1.211775880   2.118487559  -0.040756710
C       -2.462821152   4.278132073  -0.016708809
C        2.477447059  -0.008348283  -0.031314097
C        1.231622278   2.120572706   0.197944941
C       -0.030229993   4.262924569  -0.067791217
C        4.925398163   0.012913378  -0.022105510
C        3.674951137   2.119024520  -0.041343944
C        2.492309277   4.262967563  -0.067601815
C       -0.029668816   1.424631851  -0.067849105
C       -1.212066447   3.568713950  -0.041355684
C       -2.462405587   5.674718078  -0.021946279
C        2.493000015   1.424660517  -0.068107790
C        1.231051231   3.566975072   0.198054831
C       -0.014436249   5.695860236  -0.031231025
C        4.925550479   1.409433262  -0.016728739
C        3.674321480   3.569201695  -0.041026942
C        2.477139064   5.696120494  -0.030783588
O        1.231443978   2.843754368   1.551574740



     Writing output data file Graphene3x3-O_PBE.save
     NEW-OLD atomic charge density approx. for the potential

     Check: negative/imaginary core charge=   -0.000042    0.000000

     negative rho (up, down):  2.575E-05 0.000E+00

     total cpu time spent up to now is       52.6 secs

     per-process dynamical memory:    31.0 Mb

     Self-consistent Calculation

     iteration #  1     ecut=    20.00 Ry     beta=0.70
     Davidson diagonalization with overlap
     ethr =  1.00E-06,  avg # of iterations =  7.0

     negative rho (up, down):  1.855E-05 0.000E+00

     total cpu time spent up to now is       53.5 secs

     total energy              =    -371.31927487 Ry
     Harris-Foulkes estimate   =    -371.30513222 Ry
     estimated scf accuracy    <       0.01103598 Ry

     iteration #  2     ecut=    20.00 Ry     beta=0.70
     Davidson diagonalization with overlap
     ethr =  1.41E-05,  avg # of iterations =  2.0

     negative rho (up, down):  4.353E-05 0.000E+00

     total cpu time spent up to now is       54.3 secs

     total energy              =    -371.31924955 Ry
     Harris-Foulkes estimate   =    -371.32149602 Ry
     estimated scf accuracy    <       0.00385667 Ry

     iteration #  3     ecut=    20.00 Ry     beta=0.70
     Davidson diagonalization with overlap
     ethr =  4.94E-06,  avg # of iterations =  3.0

     negative rho (up, down):  2.453E-05 0.000E+00

     total cpu time spent up to now is       55.1 secs

     total energy              =    -371.31994209 Ry
     Harris-Foulkes estimate   =    -371.32166302 Ry
     estimated scf accuracy    <       0.00437554 Ry

     iteration #  4     ecut=    20.00 Ry     beta=0.70
     Davidson diagonalization with overlap
     ethr =  4.94E-06,  avg # of iterations =  2.0

     negative rho (up, down):  1.924E-05 0.000E+00

     total cpu time spent up to now is       55.9 secs

     total energy              =    -371.32072986 Ry
     Harris-Foulkes estimate   =    -371.32087479 Ry
     estimated scf accuracy    <       0.00032654 Ry

     iteration #  5     ecut=    20.00 Ry     beta=0.70
     Davidson diagonalization with overlap
     ethr =  4.19E-07,  avg # of iterations =  2.0

     negative rho (up, down):  1.917E-05 0.000E+00

     total cpu time spent up to now is       56.7 secs

     total energy              =    -371.32080335 Ry
     Harris-Foulkes estimate   =    -371.32081976 Ry
     estimated scf accuracy    <       0.00003561 Ry

     iteration #  6     ecut=    20.00 Ry     beta=0.70
     Davidson diagonalization with overlap
     ethr =  4.57E-08,  avg # of iterations =  3.0

     negative rho (up, down):  1.930E-05 0.000E+00

     total cpu time spent up to now is       57.5 secs

     total energy              =    -371.32081122 Ry
     Harris-Foulkes estimate   =    -371.32081226 Ry
     estimated scf accuracy    <       0.00000223 Ry

     iteration #  7     ecut=    20.00 Ry     beta=0.70
     Davidson diagonalization with overlap
     ethr =  2.86E-09,  avg # of iterations =  3.0

     negative rho (up, down):  1.933E-05 0.000E+00

     total cpu time spent up to now is       58.3 secs

     total energy              =    -371.32081169 Ry
     Harris-Foulkes estimate   =    -371.32081197 Ry
     estimated scf accuracy    <       0.00000061 Ry

     iteration #  8     ecut=    20.00 Ry     beta=0.70
     Davidson diagonalization with overlap
     ethr =  7.88E-10,  avg # of iterations =  3.0

     negative rho (up, down):  1.935E-05 0.000E+00

     total cpu time spent up to now is       59.1 secs

     total energy              =    -371.32081183 Ry
     Harris-Foulkes estimate   =    -371.32081187 Ry
     estimated scf accuracy    <       0.00000011 Ry

     iteration #  9     ecut=    20.00 Ry     beta=0.70
     Davidson diagonalization with overlap
     ethr =  1.45E-10,  avg # of iterations =  2.0

     negative rho (up, down):  1.934E-05 0.000E+00

     total cpu time spent up to now is       59.9 secs

     total energy              =    -371.32081185 Ry
     Harris-Foulkes estimate   =    -371.32081186 Ry
     estimated scf accuracy    <       0.00000003 Ry

     iteration # 10     ecut=    20.00 Ry     beta=0.70
     Davidson diagonalization with overlap
     ethr =  4.16E-11,  avg # of iterations =  2.0

     negative rho (up, down):  1.934E-05 0.000E+00

     total cpu time spent up to now is       60.7 secs

     End of self-consistent calculation

          k = 0.0000 0.0000 0.0000 (  1774 PWs)   bands (ev):

   -22.0882 -18.5580 -16.3357 -16.3188 -16.2706 -16.1193 -16.0727 -15.1000
   -11.9561 -11.7547 -11.7051 -11.6722  -9.6736  -9.5176  -9.0423  -8.9626
    -8.7932  -8.6511  -8.6343  -8.6026  -6.4688  -5.7462  -5.2155  -5.0352
    -4.8910  -4.8852  -4.6669  -4.6573  -3.7907  -3.6519  -3.6272  -3.4793
    -3.4752  -2.1377  -1.9764  -1.9524  -1.0313  -0.1916   0.9314   1.4300
     2.2178   3.7920   3.9025   5.8898   6.1152   6.1963   6.2423

     the Fermi energy is     1.0568 ev

!    total energy              =    -371.32081185 Ry
     Harris-Foulkes estimate   =    -371.32081185 Ry
     estimated scf accuracy    <          2.5E-09 Ry

     total all-electron energy =     -1519.921465 Ry

     The total energy is the sum of the following terms:

     one-electron contribution =    -541.74261434 Ry
     hartree contribution      =     295.13808870 Ry
     xc contribution           =     -90.49883677 Ry
     ewald contribution        =      86.37532356 Ry
     one-center paw contrib.   =    -120.59440374 Ry
     smearing contrib. (-TS)   =       0.00163074 Ry

     convergence has been achieved in  10 iterations

     negative rho (up, down):  1.934E-05 0.000E+00

     Forces acting on atoms (cartesian axes, Ry/au):

     atom    1 type  1   force =     0.00561854   -0.01784718   -0.00961099
     atom    2 type  1   force =    -0.00641328   -0.01341070   -0.00565810
     atom    3 type  1   force =    -0.00032111   -0.00519887   -0.01847708
     atom    4 type  1   force =    -0.00581146   -0.01786839   -0.01011252
     atom    5 type  1   force =     0.00019629    0.00285964    0.00161000
     atom    6 type  1   force =     0.00515611   -0.01369916    0.02796551
     atom    7 type  1   force =     0.00001364   -0.00880214   -0.00495013
     atom    8 type  1   force =     0.00626141   -0.01391055   -0.00568768
     atom    9 type  1   force =    -0.00483652   -0.01352144    0.02790634
     atom   10 type  1   force =     0.00464639    0.01319446    0.02801835
     atom   11 type  1   force =    -0.00624612    0.01389935   -0.00561779
     atom   12 type  1   force =    -0.00007938    0.00884280   -0.00493776
     atom   13 type  1   force =    -0.00504372    0.01354533    0.02813865
     atom   14 type  1   force =    -0.00007258   -0.00270189    0.00137129
     atom   15 type  1   force =     0.00611314    0.01807359   -0.01005682
     atom   16 type  1   force =     0.00026046    0.00510967   -0.01856243
     atom   17 type  1   force =     0.00649527    0.01346290   -0.00570447
     atom   18 type  1   force =    -0.00592115    0.01799245   -0.00960265
     atom   19 type  2   force =    -0.00001593   -0.00001987   -0.00603175

     Total force =     0.088401     Total SCF correction =     0.000098

     number of scf cycles    =   6
     number of bfgs steps    =   5

     energy   old            =    -371.3139964999 Ry
     energy   new            =    -371.3208118534 Ry

     CASE: energy  _new < energy  _old

     new trust radius        =       0.0288872118 bohr
     new conv_thr            =       0.0000000028 Ry


ATOMIC_POSITIONS (angstrom)
C       -0.010895667  -0.012978073  -0.038338854
C       -1.212722015   2.114404458  -0.046322744
C       -2.462964879   4.276757539  -0.027512503
C        2.474050969  -0.012663294  -0.039020131
C        1.231701173   2.120875456   0.208183679
C       -0.029095770   4.259174573  -0.056401018
C        4.925404912   0.009189702  -0.025655156
C        3.675865309   2.114735543  -0.046999660
C        2.491309945   4.259280685  -0.056201173
C       -0.028704146   1.428197099  -0.056407822
C       -1.212949895   3.573016386  -0.046980491
C       -2.462432558   5.678479269  -0.025476579
C        2.491868407   1.428354150  -0.056653633
C        1.231008218   3.566685960   0.208224699
C       -0.010864427   5.700284547  -0.038903657
C        4.925665382   1.410731101  -0.027573635
C        3.675268789   3.573316912  -0.046643106
C        2.473627745   5.700508203  -0.038179396
O        1.231436350   2.843734323   1.566861179



     Writing output data file Graphene3x3-O_PBE.save
     NEW-OLD atomic charge density approx. for the potential

     Check: negative/imaginary core charge=   -0.000042    0.000000

     negative rho (up, down):  1.880E-05 0.000E+00

     total cpu time spent up to now is       62.2 secs

     per-process dynamical memory:    31.0 Mb

     Self-consistent Calculation

     iteration #  1     ecut=    20.00 Ry     beta=0.70
     Davidson diagonalization with overlap
     ethr =  1.00E-06,  avg # of iterations =  6.0

     negative rho (up, down):  1.803E-05 0.000E+00

     total cpu time spent up to now is       63.1 secs

     total energy              =    -371.32488108 Ry
     Harris-Foulkes estimate   =    -371.32232997 Ry
     estimated scf accuracy    <       0.00081184 Ry

     iteration #  2     ecut=    20.00 Ry     beta=0.70
     Davidson diagonalization with overlap
     ethr =  1.04E-06,  avg # of iterations =  2.0

     negative rho (up, down):  1.919E-05 0.000E+00

     total cpu time spent up to now is       63.9 secs

     total energy              =    -371.32495520 Ry
     Harris-Foulkes estimate   =    -371.32507758 Ry
     estimated scf accuracy    <       0.00021548 Ry

     iteration #  3     ecut=    20.00 Ry     beta=0.70
     Davidson diagonalization with overlap
     ethr =  2.76E-07,  avg # of iterations =  3.0

     negative rho (up, down):  1.897E-05 0.000E+00

     total cpu time spent up to now is       64.7 secs

     total energy              =    -371.32498671 Ry
     Harris-Foulkes estimate   =    -371.32507946 Ry
     estimated scf accuracy    <       0.00022510 Ry

     iteration #  4     ecut=    20.00 Ry     beta=0.70
     Davidson diagonalization with overlap
     ethr =  2.76E-07,  avg # of iterations =  2.0

     negative rho (up, down):  1.803E-05 0.000E+00

     total cpu time spent up to now is       65.5 secs

     total energy              =    -371.32503258 Ry
     Harris-Foulkes estimate   =    -371.32504067 Ry
     estimated scf accuracy    <       0.00002101 Ry

     iteration #  5     ecut=    20.00 Ry     beta=0.70
     Davidson diagonalization with overlap
     ethr =  2.69E-08,  avg # of iterations =  2.0

     negative rho (up, down):  1.807E-05 0.000E+00

     total cpu time spent up to now is       66.3 secs

     total energy              =    -371.32503685 Ry
     Harris-Foulkes estimate   =    -371.32503726 Ry
     estimated scf accuracy    <       0.00000096 Ry

     iteration #  6     ecut=    20.00 Ry     beta=0.70
     Davidson diagonalization with overlap
     ethr =  1.23E-09,  avg # of iterations =  2.0

     negative rho (up, down):  1.807E-05 0.000E+00

     total cpu time spent up to now is       67.1 secs

     total energy              =    -371.32503704 Ry
     Harris-Foulkes estimate   =    -371.32503717 Ry
     estimated scf accuracy    <       0.00000029 Ry

     iteration #  7     ecut=    20.00 Ry     beta=0.70
     Davidson diagonalization with overlap
     ethr =  3.75E-10,  avg # of iterations =  3.0

     negative rho (up, down):  1.809E-05 0.000E+00

     total cpu time spent up to now is       67.9 secs

     total energy              =    -371.32503711 Ry
     Harris-Foulkes estimate   =    -371.32503712 Ry
     estimated scf accuracy    <       0.00000002 Ry

     iteration #  8     ecut=    20.00 Ry     beta=0.70
     Davidson diagonalization with overlap
     ethr =  2.16E-11,  avg # of iterations =  3.0

     negative rho (up, down):  1.809E-05 0.000E+00

     total cpu time spent up to now is       68.7 secs

     End of self-consistent calculation

          k = 0.0000 0.0000 0.0000 (  1774 PWs)   bands (ev):

   -22.0383 -18.5619 -16.3329 -16.3232 -16.2602 -16.1330 -16.0716 -15.1282
   -11.9762 -11.8129 -11.7012 -11.6319  -9.6743  -9.5257  -9.0360  -8.9825
    -8.7675  -8.6896  -8.6480  -8.6051  -6.4782  -5.7338  -5.2387  -5.0100
    -4.9337  -4.8741  -4.6486  -4.6374  -3.8068  -3.6729  -3.6231  -3.4841
    -3.4715  -2.1439  -2.0577  -1.9186  -1.0272  -0.1607   0.8983   1.4786
     2.1744   3.7849   3.9254   5.9007   6.1219   6.1895   6.2232

     the Fermi energy is     1.0236 ev

!    total energy              =    -371.32503711 Ry
     Harris-Foulkes estimate   =    -371.32503711 Ry
     estimated scf accuracy    <          1.7E-09 Ry

     total all-electron energy =     -1519.925690 Ry

     The total energy is the sum of the following terms:

     one-electron contribution =    -540.97484860 Ry
     hartree contribution      =     294.73984644 Ry
     xc contribution           =     -90.49327665 Ry
     ewald contribution        =      85.99625086 Ry
     one-center paw contrib.   =    -120.59464016 Ry
     smearing contrib. (-TS)   =       0.00163098 Ry

     convergence has been achieved in   8 iterations

     negative rho (up, down):  1.809E-05 0.000E+00

     Forces acting on atoms (cartesian axes, Ry/au):

     atom    1 type  1   force =    -0.00637315    0.00172353   -0.00625976
     atom    2 type  1   force =    -0.00553404    0.00522572   -0.00399296
     atom    3 type  1   force =     0.00016991    0.00763245   -0.01879491
     atom    4 type  1   force =     0.00629978    0.00182553   -0.00663772
     atom    5 type  1   force =    -0.00028273    0.00735539    0.00754343
     atom    6 type  1   force =     0.00559625    0.00412641    0.02273766
     atom    7 type  1   force =     0.00011366    0.01056581   -0.00745487
     atom    8 type  1   force =     0.00562145    0.00497327   -0.00395248
     atom    9 type  1   force =    -0.00559719    0.00386933    0.02288523
     atom   10 type  1   force =     0.00546249   -0.00365840    0.02296099
     atom   11 type  1   force =    -0.00563527   -0.00504694   -0.00387282
     atom   12 type  1   force =    -0.00010276   -0.01057684   -0.00738109
     atom   13 type  1   force =    -0.00535670   -0.00390534    0.02280208
     atom   14 type  1   force =     0.00023862   -0.00740131    0.00743155
     atom   15 type  1   force =    -0.00630775   -0.00201106   -0.00667324
     atom   16 type  1   force =    -0.00014382   -0.00736529   -0.01893753
     atom   17 type  1   force =     0.00557949   -0.00536910   -0.00398051
     atom   18 type  1   force =     0.00625003   -0.00199476   -0.00630066
     atom   19 type  2   force =     0.00000173    0.00003160   -0.01212237

     Total force =     0.066563     Total SCF correction =     0.000122

     number of scf cycles    =   7
     number of bfgs steps    =   6

     energy   old            =    -371.3208118534 Ry
     energy   new            =    -371.3250371120 Ry

     CASE: energy  _new < energy  _old

     new trust radius        =       0.0635518661 bohr
     new conv_thr            =       0.0000000023 Ry


ATOMIC_POSITIONS (angstrom)
C       -0.012794678  -0.016926683  -0.057111464
C       -1.215177288   2.112051465  -0.060770200
C       -2.463043978   4.281666455  -0.060394433
C        2.475837373  -0.016528473  -0.058568240
C        1.231597266   2.125430305   0.240008743
C       -0.024326664   4.255728234  -0.023542052
C        4.925492927   0.012804852  -0.038027905
C        3.678352514   2.111901128  -0.061608309
C        2.486704790   4.255708703  -0.023164545
C       -0.024252481   1.431794415  -0.023268234
C       -1.215411766   3.575815652  -0.061480540
C       -2.462522157   5.674892642  -0.037747834
C        2.487292420   1.431918520  -0.023673700
C        1.231117396   3.562100301   0.239841860
C       -0.012369598   5.704155117  -0.058424106
C        4.925717107   1.405925089  -0.060631379
C        3.677759811   3.575606940  -0.061180952
C        2.475179228   5.704324568  -0.056943421
O        1.231425618   2.843715309   1.596686713



     Writing output data file Graphene3x3-O_PBE.save
     NEW-OLD atomic charge density approx. for the potential

     Check: negative/imaginary core charge=   -0.000042    0.000000

     negative rho (up, down):  1.796E-05 0.000E+00

     total cpu time spent up to now is       70.2 secs

     per-process dynamical memory:    31.0 Mb

     Self-consistent Calculation

     iteration #  1     ecut=    20.00 Ry     beta=0.70
     Davidson diagonalization with overlap
     ethr =  1.00E-06,  avg # of iterations =  8.0

     negative rho (up, down):  1.482E-05 0.000E+00

     total cpu time spent up to now is       71.2 secs

     total energy              =    -371.33116475 Ry
     Harris-Foulkes estimate   =    -371.32652154 Ry
     estimated scf accuracy    <       0.00474246 Ry

     iteration #  2     ecut=    20.00 Ry     beta=0.70
     Davidson diagonalization with overlap
     ethr =  6.08E-06,  avg # of iterations =  3.0

     negative rho (up, down):  2.800E-05 0.000E+00

     total cpu time spent up to now is       72.0 secs

     total energy              =    -371.33155764 Ry
     Harris-Foulkes estimate   =    -371.33244268 Ry
     estimated scf accuracy    <       0.00153072 Ry

     iteration #  3     ecut=    20.00 Ry     beta=0.70
     Davidson diagonalization with overlap
     ethr =  1.96E-06,  avg # of iterations =  3.0

     negative rho (up, down):  2.532E-05 0.000E+00

     total cpu time spent up to now is       72.8 secs

     total energy              =    -371.33181251 Ry
     Harris-Foulkes estimate   =    -371.33245103 Ry
     estimated scf accuracy    <       0.00161199 Ry

     iteration #  4     ecut=    20.00 Ry     beta=0.70
     Davidson diagonalization with overlap
     ethr =  1.96E-06,  avg # of iterations =  2.0

     negative rho (up, down):  1.576E-05 0.000E+00

     total cpu time spent up to now is       73.5 secs

     total energy              =    -371.33212698 Ry
     Harris-Foulkes estimate   =    -371.33215790 Ry
     estimated scf accuracy    <       0.00008306 Ry

     iteration #  5     ecut=    20.00 Ry     beta=0.70
     Davidson diagonalization with overlap
     ethr =  1.06E-07,  avg # of iterations =  2.0

     negative rho (up, down):  1.552E-05 0.000E+00

     total cpu time spent up to now is       74.4 secs

     total energy              =    -371.33214437 Ry
     Harris-Foulkes estimate   =    -371.33214953 Ry
     estimated scf accuracy    <       0.00001050 Ry

     iteration #  6     ecut=    20.00 Ry     beta=0.70
     Davidson diagonalization with overlap
     ethr =  1.35E-08,  avg # of iterations =  2.0

     negative rho (up, down):  1.555E-05 0.000E+00

     total cpu time spent up to now is       75.2 secs

     total energy              =    -371.33214676 Ry
     Harris-Foulkes estimate   =    -371.33214755 Ry
     estimated scf accuracy    <       0.00000165 Ry

     iteration #  7     ecut=    20.00 Ry     beta=0.70
     Davidson diagonalization with overlap
     ethr =  2.11E-09,  avg # of iterations =  2.0

     negative rho (up, down):  1.555E-05 0.000E+00

     total cpu time spent up to now is       76.0 secs

     total energy              =    -371.33214712 Ry
     Harris-Foulkes estimate   =    -371.33214718 Ry
     estimated scf accuracy    <       0.00000011 Ry

     iteration #  8     ecut=    20.00 Ry     beta=0.70
     Davidson diagonalization with overlap
     ethr =  1.44E-10,  avg # of iterations =  3.0

     negative rho (up, down):  1.555E-05 0.000E+00

     total cpu time spent up to now is       76.8 secs

     total energy              =    -371.33214715 Ry
     Harris-Foulkes estimate   =    -371.33214716 Ry
     estimated scf accuracy    <       0.00000003 Ry

     iteration #  9     ecut=    20.00 Ry     beta=0.70
     Davidson diagonalization with overlap
     ethr =  3.43E-11,  avg # of iterations =  3.0

     negative rho (up, down):  1.556E-05 0.000E+00

     total cpu time spent up to now is       77.6 secs

     End of self-consistent calculation

          k = 0.0000 0.0000 0.0000 (  1774 PWs)   bands (ev):

   -22.1398 -18.5645 -16.3605 -16.3164 -16.2215 -16.1050 -16.0458 -15.1823
   -11.9680 -11.8488 -11.7554 -11.5785  -9.6897  -9.5341  -9.0800  -8.9958
    -8.7732  -8.7065  -8.6431  -8.5731  -6.4889  -5.7624  -5.2375  -5.0129
    -4.9583  -4.8804  -4.6115  -4.5994  -3.8878  -3.6960  -3.6253  -3.4661
    -3.4492  -2.1410  -2.1155  -1.9334  -1.0656  -0.1677   0.8909   1.5370
     2.1865   3.7107   3.9800   5.8915   6.1550   6.1770   6.2534

     the Fermi energy is     1.0163 ev

!    total energy              =    -371.33214716 Ry
     Harris-Foulkes estimate   =    -371.33214716 Ry
     estimated scf accuracy    <          1.5E-09 Ry

     total all-electron energy =     -1519.932800 Ry

     The total energy is the sum of the following terms:

     one-electron contribution =    -539.64508677 Ry
     hartree contribution      =     294.04596811 Ry
     xc contribution           =     -90.48999385 Ry
     ewald contribution        =      85.34982202 Ry
     one-center paw contrib.   =    -120.59448767 Ry
     smearing contrib. (-TS)   =       0.00163099 Ry

     convergence has been achieved in   9 iterations

     negative rho (up, down):  1.556E-05 0.000E+00

     Forces acting on atoms (cartesian axes, Ry/au):

     atom    1 type  1   force =     0.00759212    0.01946915    0.00274106
     atom    2 type  1   force =     0.00363458    0.01337829   -0.00055616
     atom    3 type  1   force =     0.00046260   -0.00450728   -0.01812938
     atom    4 type  1   force =    -0.00774580    0.01932510    0.00297795
     atom    5 type  1   force =    -0.00000306   -0.01364927    0.01097433
     atom    6 type  1   force =    -0.00946050    0.01556116    0.00824280
     atom    7 type  1   force =    -0.00020119   -0.00221027   -0.01322482
     atom    8 type  1   force =    -0.00381295    0.01366266   -0.00021276
     atom    9 type  1   force =     0.00932239    0.01538462    0.00858639
     atom   10 type  1   force =    -0.00875689   -0.01542430    0.00868192
     atom   11 type  1   force =     0.00402366   -0.01343277   -0.00009126
     atom   12 type  1   force =     0.00012656    0.00240698   -0.01324534
     atom   13 type  1   force =     0.00909004   -0.01570545    0.00817382
     atom   14 type  1   force =    -0.00005467    0.01347121    0.01137308
     atom   15 type  1   force =     0.00734929   -0.01942640    0.00280406
     atom   16 type  1   force =    -0.00032482    0.00436491   -0.01801870
     atom   17 type  1   force =    -0.00395252   -0.01317002   -0.00031858
     atom   18 type  1   force =    -0.00729188   -0.01957935    0.00262573
     atom   19 type  2   force =     0.00000303    0.00008103   -0.00338416

     Total force =     0.076255     Total SCF correction =     0.000077

     number of scf cycles    =   8
     number of bfgs steps    =   7

     energy   old            =    -371.3250371120 Ry
     energy   new            =    -371.3321471565 Ry

     CASE: energy  _new < energy  _old

     new trust radius        =       0.1413117783 bohr
     new conv_thr            =       0.0000000020 Ry


ATOMIC_POSITIONS (angstrom)
C       -0.011365764  -0.015402947  -0.084901414
C       -1.213994753   2.112273643  -0.086122115
C       -2.462898908   4.278238478  -0.120351581
C        2.474093362  -0.015072933  -0.087266959
C        1.231607084   2.117866303   0.314404177
C       -0.024141278   4.254447171   0.020622070
C        4.925370344   0.008131693  -0.066562576
C        3.677049945   2.111705964  -0.086995378
C        2.486581205   4.254269531   0.021504218
C       -0.023966952   1.433121316   0.021584213
C       -1.213957685   3.576154643  -0.086632232
C       -2.462450278   5.679712878  -0.066161142
C        2.487086867   1.433168299   0.020573614
C        1.231104565   3.569558219   0.314198324
C       -0.010455948   5.702714742  -0.087189635
C        4.925613946   1.409330056  -0.120712535
C        3.676415275   3.575524238  -0.086516328
C        2.473479615   5.702629202  -0.084784166
O        1.231407197   2.843714044   1.661309444



     Writing output data file Graphene3x3-O_PBE.save
     NEW-OLD atomic charge density approx. for the potential

     Check: negative/imaginary core charge=   -0.000042    0.000000

     negative rho (up, down):  2.039E-05 0.000E+00

     total cpu time spent up to now is       79.1 secs

     per-process dynamical memory:    31.0 Mb

     Self-consistent Calculation

     iteration #  1     ecut=    20.00 Ry     beta=0.70
     Davidson diagonalization with overlap
     ethr =  1.00E-06,  avg # of iterations =  8.0

     negative rho (up, down):  1.334E-05 0.000E+00

     total cpu time spent up to now is       80.0 secs

     total energy              =    -371.33691356 Ry
     Harris-Foulkes estimate   =    -371.32704773 Ry
     estimated scf accuracy    <       0.01435312 Ry

     iteration #  2     ecut=    20.00 Ry     beta=0.70
     Davidson diagonalization with overlap
     ethr =  1.84E-05,  avg # of iterations =  3.0

     negative rho (up, down):  2.167E-05 0.000E+00

     total cpu time spent up to now is       80.8 secs

     total energy              =    -371.33876201 Ry
     Harris-Foulkes estimate   =    -371.33959433 Ry
     estimated scf accuracy    <       0.00179036 Ry

     iteration #  3     ecut=    20.00 Ry     beta=0.70
     Davidson diagonalization with overlap
     ethr =  2.30E-06,  avg # of iterations =  3.0

     negative rho (up, down):  3.223E-05 0.000E+00

     total cpu time spent up to now is       81.7 secs

     total energy              =    -371.33880730 Ry
     Harris-Foulkes estimate   =    -371.33974298 Ry
     estimated scf accuracy    <       0.00209849 Ry

     iteration #  4     ecut=    20.00 Ry     beta=0.70
     Davidson diagonalization with overlap
     ethr =  2.30E-06,  avg # of iterations =  2.0

     negative rho (up, down):  1.565E-05 0.000E+00

     total cpu time spent up to now is       82.5 secs

     total energy              =    -371.33929426 Ry
     Harris-Foulkes estimate   =    -371.33940392 Ry
     estimated scf accuracy    <       0.00031888 Ry

     iteration #  5     ecut=    20.00 Ry     beta=0.70
     Davidson diagonalization with overlap
     ethr =  4.09E-07,  avg # of iterations =  2.0

     negative rho (up, down):  1.564E-05 0.000E+00

     total cpu time spent up to now is       83.2 secs

     total energy              =    -371.33934888 Ry
     Harris-Foulkes estimate   =    -371.33935610 Ry
     estimated scf accuracy    <       0.00001373 Ry

     iteration #  6     ecut=    20.00 Ry     beta=0.70
     Davidson diagonalization with overlap
     ethr =  1.76E-08,  avg # of iterations =  3.0

     negative rho (up, down):  1.570E-05 0.000E+00

     total cpu time spent up to now is       84.1 secs

     total energy              =    -371.33935222 Ry
     Harris-Foulkes estimate   =    -371.33935398 Ry
     estimated scf accuracy    <       0.00000416 Ry

     iteration #  7     ecut=    20.00 Ry     beta=0.70
     Davidson diagonalization with overlap
     ethr =  5.33E-09,  avg # of iterations =  3.0

     negative rho (up, down):  1.570E-05 0.000E+00

     total cpu time spent up to now is       84.8 secs

     total energy              =    -371.33935305 Ry
     Harris-Foulkes estimate   =    -371.33935307 Ry
     estimated scf accuracy    <       0.00000008 Ry

     iteration #  8     ecut=    20.00 Ry     beta=0.70
     Davidson diagonalization with overlap
     ethr =  9.86E-11,  avg # of iterations =  3.0

     negative rho (up, down):  1.570E-05 0.000E+00

     total cpu time spent up to now is       85.7 secs

     total energy              =    -371.33935307 Ry
     Harris-Foulkes estimate   =    -371.33935309 Ry
     estimated scf accuracy    <       0.00000003 Ry

     iteration #  9     ecut=    20.00 Ry     beta=0.70
     Davidson diagonalization with overlap
     ethr =  4.13E-11,  avg # of iterations =  3.0

     negative rho (up, down):  1.570E-05 0.000E+00

     total cpu time spent up to now is       86.5 secs

     total energy              =    -371.33935308 Ry
     Harris-Foulkes estimate   =    -371.33935308 Ry
     estimated scf accuracy    <          3.0E-09 Ry

     iteration # 10     ecut=    20.00 Ry     beta=0.70
     Davidson diagonalization with overlap
     ethr =  3.85E-12,  avg # of iterations =  2.0

     negative rho (up, down):  1.570E-05 0.000E+00

     total cpu time spent up to now is       87.2 secs

     End of self-consistent calculation

          k = 0.0000 0.0000 0.0000 (  1774 PWs)   bands (ev):

   -22.2026 -18.5607 -16.3276 -16.2892 -16.1964 -16.0989 -16.0486 -15.1749
   -11.9497 -11.8797 -11.7022 -11.5763  -9.6515  -9.5149  -9.0444  -9.0119
    -8.7484  -8.7320  -8.6483  -8.5863  -6.4781  -5.7560  -5.2869  -5.0590
    -4.9562  -4.8364  -4.6009  -4.5988  -3.8370  -3.6679  -3.6280  -3.4769
    -3.4051  -2.2468  -2.1847  -1.9256  -1.1533  -0.1036   0.9186   1.5470
     2.1315   3.6588   4.0791   5.8441   6.0653   6.1410   6.1824

     the Fermi energy is     1.0439 ev

!    total energy              =    -371.33935308 Ry
     Harris-Foulkes estimate   =    -371.33935308 Ry
     estimated scf accuracy    <          3.3E-10 Ry

     total all-electron energy =     -1519.940006 Ry

     The total energy is the sum of the following terms:

     one-electron contribution =    -534.91258391 Ry
     hartree contribution      =     291.64603610 Ry
     xc contribution           =     -90.43081913 Ry
     ewald contribution        =      82.94842847 Ry
     one-center paw contrib.   =    -120.59204560 Ry
     smearing contrib. (-TS)   =       0.00163099 Ry

     convergence has been achieved in  10 iterations

     negative rho (up, down):  1.570E-05 0.000E+00

     Forces acting on atoms (cartesian axes, Ry/au):

     atom    1 type  1   force =    -0.00149914    0.02120312    0.01284113
     atom    2 type  1   force =     0.00759213    0.01464165    0.00363325
     atom    3 type  1   force =    -0.00046712    0.01532358   -0.01831003
     atom    4 type  1   force =     0.00237960    0.02125206    0.01359289
     atom    5 type  1   force =     0.00018875    0.00226266    0.00612474
     atom    6 type  1   force =    -0.01079831    0.01983256   -0.00227943
     atom    7 type  1   force =     0.00032420    0.01839205   -0.01761969
     atom    8 type  1   force =    -0.00742836    0.01581726    0.00409512
     atom    9 type  1   force =     0.01119310    0.01933889   -0.00247651
     atom   10 type  1   force =    -0.01152458   -0.01919141   -0.00250978
[...]
     atom   17 type  1   force =    -0.00259776    0.00194301    0.00022989
     atom   18 type  1   force =     0.00003482    0.00093380    0.00040784
     atom   19 type  2   force =    -0.00006688    0.00001384   -0.00058806

     Total force =     0.010049     Total SCF correction =     0.000021

     number of scf cycles    =  21
     number of bfgs steps    =  20

     energy   old            =    -371.3516685933 Ry
     energy   new            =    -371.3517002213 Ry

     CASE: energy  _new < energy  _old

     new trust radius        =       0.0050244876 bohr
     new conv_thr            =            1.0E-10 Ry


ATOMIC_POSITIONS (angstrom)
C       -0.011734934  -0.012533605   0.030006716
C       -1.200756158   2.110964821  -0.226245061
C       -2.462613210   4.287722247  -0.285590022
C        2.474884353  -0.012435077   0.038696907
C        1.231615552   2.117108052   0.385447407
C       -0.031772706   4.254228543   0.063765801
C        4.925056859   0.015247123  -0.052801796
C        3.664171313   2.111339831  -0.223924318
C        2.493111020   4.254483784   0.060470549
C       -0.030444121   1.433085462   0.060083989
C       -1.201137880   3.576561274  -0.224250412
C       -2.462283299   5.672484634  -0.049693910
C        2.494447477   1.433299551   0.062940016
C        1.231137004   3.570516231   0.386278781
C       -0.011721567   5.700013914   0.037767001
C        4.925362208   1.400069325  -0.286895195
C        3.663337728   3.576850721  -0.225139666
C        2.474140546   5.699984159   0.028239157
O        1.231777655   2.843093551   1.730844057



     Writing output data file Graphene3x3-O_PBE.save
     NEW-OLD atomic charge density approx. for the potential

     Check: negative/imaginary core charge=   -0.000042    0.000000

     negative rho (up, down):  7.495E-06 0.000E+00

     total cpu time spent up to now is      196.0 secs

     per-process dynamical memory:    31.0 Mb

     Self-consistent Calculation

     iteration #  1     ecut=    20.00 Ry     beta=0.70
     Davidson diagonalization with overlap
     ethr =  1.00E-06,  avg # of iterations =  2.0

     Threshold (ethr) on eigenvalues was too large:
     Diagonalizing with lowered threshold

     Davidson diagonalization with overlap
     ethr =  2.48E-08,  avg # of iterations =  2.0

     negative rho (up, down):  7.556E-06 0.000E+00

     total cpu time spent up to now is      197.0 secs

     total energy              =    -371.35171753 Ry
     Harris-Foulkes estimate   =    -371.35187887 Ry
     estimated scf accuracy    <       0.00001995 Ry

     iteration #  2     ecut=    20.00 Ry     beta=0.70
     Davidson diagonalization with overlap
     ethr =  2.56E-08,  avg # of iterations =  2.0

     negative rho (up, down):  7.582E-06 0.000E+00

     total cpu time spent up to now is      197.8 secs

     total energy              =    -371.35171964 Ry
     Harris-Foulkes estimate   =    -371.35172429 Ry
     estimated scf accuracy    <       0.00000821 Ry

     iteration #  3     ecut=    20.00 Ry     beta=0.70
     Davidson diagonalization with overlap
     ethr =  1.05E-08,  avg # of iterations =  3.0

     negative rho (up, down):  7.584E-06 0.000E+00

     total cpu time spent up to now is      198.6 secs

     total energy              =    -371.35172139 Ry
     Harris-Foulkes estimate   =    -371.35172346 Ry
     estimated scf accuracy    <       0.00000508 Ry

     iteration #  4     ecut=    20.00 Ry     beta=0.70
     Davidson diagonalization with overlap
     ethr =  6.51E-09,  avg # of iterations =  2.0

     negative rho (up, down):  7.571E-06 0.000E+00

     total cpu time spent up to now is      199.4 secs

     total energy              =    -371.35172240 Ry
     Harris-Foulkes estimate   =    -371.35172252 Ry
     estimated scf accuracy    <       0.00000031 Ry

     iteration #  5     ecut=    20.00 Ry     beta=0.70
     Davidson diagonalization with overlap
     ethr =  4.01E-10,  avg # of iterations =  2.0

     negative rho (up, down):  7.571E-06 0.000E+00

     total cpu time spent up to now is      200.2 secs

     total energy              =    -371.35172247 Ry
     Harris-Foulkes estimate   =    -371.35172250 Ry
     estimated scf accuracy    <       0.00000006 Ry

     iteration #  6     ecut=    20.00 Ry     beta=0.70
     Davidson diagonalization with overlap
     ethr =  7.90E-11,  avg # of iterations =  2.0

     negative rho (up, down):  7.572E-06 0.000E+00

     total cpu time spent up to now is      201.0 secs

     total energy              =    -371.35172248 Ry
     Harris-Foulkes estimate   =    -371.35172248 Ry
     estimated scf accuracy    <          7.2E-09 Ry

     iteration #  7     ecut=    20.00 Ry     beta=0.70
     Davidson diagonalization with overlap
     ethr =  9.28E-12,  avg # of iterations =  2.0

     negative rho (up, down):  7.572E-06 0.000E+00

     total cpu time spent up to now is      201.8 secs

     total energy              =    -371.35172248 Ry
     Harris-Foulkes estimate   =    -371.35172248 Ry
     estimated scf accuracy    <          5.5E-10 Ry

     iteration #  8     ecut=    20.00 Ry     beta=0.70
     Davidson diagonalization with overlap
     ethr =  7.05E-13,  avg # of iterations =  2.0

     negative rho (up, down):  7.572E-06 0.000E+00

     total cpu time spent up to now is      202.6 secs

     total energy              =    -371.35172248 Ry
     Harris-Foulkes estimate   =    -371.35172248 Ry
     estimated scf accuracy    <          1.5E-10 Ry

     iteration #  9     ecut=    20.00 Ry     beta=0.70
     Davidson diagonalization with overlap
     ethr =  1.91E-13,  avg # of iterations =  2.0

     negative rho (up, down):  7.572E-06 0.000E+00

     total cpu time spent up to now is      203.4 secs

     End of self-consistent calculation

          k = 0.0000 0.0000 0.0000 (  1774 PWs)   bands (ev):

   -22.2065 -18.5233 -16.2800 -16.2619 -16.1303 -16.0495 -15.9799 -15.1249
   -11.8723 -11.7815 -11.7185 -11.6180  -9.5615  -9.4477  -9.0442  -9.0341
    -8.6829  -8.6689  -8.6426  -8.5889  -6.3895  -5.7838  -5.3873  -5.1238
    -4.8934  -4.8185  -4.5811  -4.5144  -3.7904  -3.7403  -3.6002  -3.3781
    -3.3691  -2.2545  -2.0355  -1.8119  -1.2062  -0.3362   0.8470   1.6084
     2.1563   3.5905   3.9878   5.5504   5.8290   5.9990   6.0555

     the Fermi energy is     0.9724 ev

!    total energy              =    -371.35172248 Ry
     Harris-Foulkes estimate   =    -371.35172248 Ry
     estimated scf accuracy    <          2.9E-11 Ry

     total all-electron energy =     -1519.952376 Ry

     The total energy is the sum of the following terms:

     one-electron contribution =    -525.05675866 Ry
     hartree contribution      =     286.66597998 Ry
     xc contribution           =     -90.25708039 Ry
     ewald contribution        =      77.88010030 Ry
     one-center paw contrib.   =    -120.58559471 Ry
     smearing contrib. (-TS)   =       0.00163099 Ry

     convergence has been achieved in   9 iterations

     negative rho (up, down):  7.572E-06 0.000E+00

     Forces acting on atoms (cartesian axes, Ry/au):

     atom    1 type  1   force =     0.00011349   -0.00046249    0.00020532
     atom    2 type  1   force =    -0.00007857    0.00002665   -0.00020149
     atom    3 type  1   force =    -0.00011873   -0.00025128    0.00017556
     atom    4 type  1   force =     0.00001669   -0.00016407   -0.00015633
     atom    5 type  1   force =     0.00037298   -0.00017932   -0.00000963
     atom    6 type  1   force =     0.00103869   -0.00009301    0.00025428
     atom    7 type  1   force =     0.00006185   -0.00065209   -0.00001317
     atom    8 type  1   force =    -0.00001298    0.00031904   -0.00024758
     atom    9 type  1   force =    -0.00006510   -0.00025541    0.00008824
     atom   10 type  1   force =    -0.00052923    0.00042077    0.00002555
     atom   11 type  1   force =    -0.00055408   -0.00055945   -0.00007445
     atom   12 type  1   force =     0.00000374    0.00021860   -0.00046433
     atom   13 type  1   force =    -0.00055653    0.00028039    0.00027097
     atom   14 type  1   force =    -0.00030317    0.00018991   -0.00014534
     atom   15 type  1   force =    -0.00008980    0.00022694   -0.00012397
     atom   16 type  1   force =     0.00002534    0.00039609    0.00013127
     atom   17 type  1   force =     0.00075485   -0.00022976   -0.00031122
     atom   18 type  1   force =    -0.00002083    0.00062941    0.00043762
     atom   19 type  2   force =    -0.00005861    0.00013909    0.00015869

     Total force =     0.002456     Total SCF correction =     0.000010

     number of scf cycles    =  22
     number of bfgs steps    =  21

     energy   old            =    -371.3517002213 Ry
     energy   new            =    -371.3517224831 Ry

     CASE: energy  _new < energy  _old

     new trust radius        =       0.0021666753 bohr
     new conv_thr            =            1.0E-10 Ry


ATOMIC_POSITIONS (angstrom)
C       -0.011742057  -0.012618350   0.030858281
C       -1.200713509   2.110937702  -0.227361999
C       -2.462649782   4.287649493  -0.286143761
C        2.474822364  -0.012394758   0.039426347
C        1.231735538   2.117134214   0.385670270
C       -0.031512699   4.254128935   0.063955149
C        4.925031770   0.015161284  -0.052260140
C        3.664066892   2.111433755  -0.225040938
C        2.493239122   4.254332048   0.060568892
C       -0.030718175   1.433271956   0.060182094
C       -1.201166113   3.576427918  -0.225253851
C       -2.462216152   5.672511245  -0.049337849
C        2.494291413   1.433431258   0.063164526
C        1.231040964   3.570479691   0.386444839
C       -0.011723199   5.699987320   0.038512031
C        4.925352193   1.400081290  -0.287459026
C        3.663481452   3.576841365  -0.226277139
C        2.474207945   5.700134045   0.029204146
O        1.231749872   2.843154128   1.731148130



     Writing output data file Graphene3x3-O_PBE.save
     NEW-OLD atomic charge density approx. for the potential

     Check: negative/imaginary core charge=   -0.000042    0.000000

     negative rho (up, down):  7.548E-06 0.000E+00

     total cpu time spent up to now is      205.1 secs

     per-process dynamical memory:    31.0 Mb

     Self-consistent Calculation

     iteration #  1     ecut=    20.00 Ry     beta=0.70
     Davidson diagonalization with overlap
     ethr =  1.00E-06,  avg # of iterations =  2.0

     Threshold (ethr) on eigenvalues was too large:
     Diagonalizing with lowered threshold

     Davidson diagonalization with overlap
     ethr =  5.49E-09,  avg # of iterations =  2.0

     negative rho (up, down):  7.519E-06 0.000E+00

     total cpu time spent up to now is      206.1 secs

     total energy              =    -371.35172371 Ry
     Harris-Foulkes estimate   =    -371.35170349 Ry
     estimated scf accuracy    <       0.00000427 Ry

     iteration #  2     ecut=    20.00 Ry     beta=0.70
     Davidson diagonalization with overlap
     ethr =  5.48E-09,  avg # of iterations =  3.0

     negative rho (up, down):  7.518E-06 0.000E+00

     total cpu time spent up to now is      206.9 secs

     total energy              =    -371.35172436 Ry
     Harris-Foulkes estimate   =    -371.35172498 Ry
     estimated scf accuracy    <       0.00000108 Ry

     iteration #  3     ecut=    20.00 Ry     beta=0.70
     Davidson diagonalization with overlap
     ethr =  1.38E-09,  avg # of iterations =  2.0

     negative rho (up, down):  7.522E-06 0.000E+00

     total cpu time spent up to now is      207.7 secs

     total energy              =    -371.35172454 Ry
     Harris-Foulkes estimate   =    -371.35172490 Ry
     estimated scf accuracy    <       0.00000087 Ry

     iteration #  4     ecut=    20.00 Ry     beta=0.70
     Davidson diagonalization with overlap
     ethr =  1.12E-09,  avg # of iterations =  2.0

     negative rho (up, down):  7.517E-06 0.000E+00

     total cpu time spent up to now is      208.5 secs

     total energy              =    -371.35172472 Ry
     Harris-Foulkes estimate   =    -371.35172474 Ry
     estimated scf accuracy    <       0.00000007 Ry

     iteration #  5     ecut=    20.00 Ry     beta=0.70
     Davidson diagonalization with overlap
     ethr =  9.47E-11,  avg # of iterations =  2.0

     negative rho (up, down):  7.516E-06 0.000E+00

     total cpu time spent up to now is      209.3 secs

     total energy              =    -371.35172473 Ry
     Harris-Foulkes estimate   =    -371.35172474 Ry
     estimated scf accuracy    <       0.00000001 Ry

     iteration #  6     ecut=    20.00 Ry     beta=0.70
     Davidson diagonalization with overlap
     ethr =  1.55E-11,  avg # of iterations =  2.0

     negative rho (up, down):  7.516E-06 0.000E+00

     total cpu time spent up to now is      210.1 secs

     total energy              =    -371.35172473 Ry
     Harris-Foulkes estimate   =    -371.35172473 Ry
     estimated scf accuracy    <          1.3E-09 Ry

     iteration #  7     ecut=    20.00 Ry     beta=0.70
     Davidson diagonalization with overlap
     ethr =  1.61E-12,  avg # of iterations =  2.0

     negative rho (up, down):  7.516E-06 0.000E+00

     total cpu time spent up to now is      210.9 secs

     End of self-consistent calculation

          k = 0.0000 0.0000 0.0000 (  1774 PWs)   bands (ev):

   -22.2057 -18.5228 -16.2792 -16.2607 -16.1295 -16.0490 -15.9806 -15.1251
   -11.8716 -11.7823 -11.7180 -11.6182  -9.5605  -9.4476  -9.0430  -9.0345
    -8.6815  -8.6698  -8.6428  -8.5894  -6.3888  -5.7839  -5.3885  -5.1237
    -4.8934  -4.8177  -4.5820  -4.5131  -3.7908  -3.7403  -3.5992  -3.3785
    -3.3682  -2.2536  -2.0359  -1.8104  -1.2065  -0.3366   0.8462   1.6087
     2.1553   3.5882   3.9879   5.5491   5.8278   5.9964   6.0535

     the Fermi energy is     0.9716 ev

!    total energy              =    -371.35172473 Ry
     Harris-Foulkes estimate   =    -371.35172473 Ry
     estimated scf accuracy    <          9.9E-11 Ry

     total all-electron energy =     -1519.952378 Ry

     The total energy is the sum of the following terms:

     one-electron contribution =    -524.98265112 Ry
     hartree contribution      =     286.62840973 Ry
     xc contribution           =     -90.25536058 Ry
     ewald contribution        =      77.84178457 Ry
     one-center paw contrib.   =    -120.58553833 Ry
     smearing contrib. (-TS)   =       0.00163099 Ry

     convergence has been achieved in   7 iterations

     negative rho (up, down):  7.516E-06 0.000E+00

     Forces acting on atoms (cartesian axes, Ry/au):

     atom    1 type  1   force =     0.00021008    0.00002155    0.00018220
     atom    2 type  1   force =    -0.00023121   -0.00000302   -0.00012986
     atom    3 type  1   force =     0.00024833    0.00020155    0.00018644
     atom    4 type  1   force =     0.00017677   -0.00014054   -0.00018437
     atom    5 type  1   force =    -0.00038103   -0.00009089    0.00001842
     atom    6 type  1   force =    -0.00012120   -0.00013619   -0.00005784
     atom    7 type  1   force =     0.00008167   -0.00011834   -0.00005708
     atom    8 type  1   force =    -0.00017454   -0.00015230   -0.00010255
     atom    9 type  1   force =    -0.00007501    0.00001113    0.00005839
     atom   10 type  1   force =     0.00018849    0.00002757    0.00011852
     atom   11 type  1   force =     0.00012781    0.00003745    0.00009636
     atom   12 type  1   force =    -0.00016987   -0.00008126   -0.00043756
     atom   13 type  1   force =     0.00012451    0.00017876    0.00002683
     atom   14 type  1   force =     0.00036691    0.00010230   -0.00010202
     atom   15 type  1   force =    -0.00007948    0.00016845   -0.00012121
     atom   16 type  1   force =    -0.00015926   -0.00004239    0.00016598
     atom   17 type  1   force =     0.00008326   -0.00005630   -0.00015660
     atom   18 type  1   force =    -0.00016565   -0.00003461    0.00041671
     atom   19 type  2   force =    -0.00005056    0.00010707    0.00007925

     Total force =     0.001236     Total SCF correction =     0.000022

     bfgs converged in  23 scf cycles and  22 bfgs steps
     (criteria: energy <  1.0E-04 Ry, force <  1.0E-03 Ry/Bohr)

     End of BFGS Geometry Optimization

     Final energy   =    -371.3517247342 Ry
Begin final coordinates

ATOMIC_POSITIONS (angstrom)
C       -0.011742057  -0.012618350   0.030858281
C       -1.200713509   2.110937702  -0.227361999
C       -2.462649782   4.287649493  -0.286143761
C        2.474822364  -0.012394758   0.039426347
C        1.231735538   2.117134214   0.385670270
C       -0.031512699   4.254128935   0.063955149
C        4.925031770   0.015161284  -0.052260140
C        3.664066892   2.111433755  -0.225040938
C        2.493239122   4.254332048   0.060568892
C       -0.030718175   1.433271956   0.060182094
C       -1.201166113   3.576427918  -0.225253851
C       -2.462216152   5.672511245  -0.049337849
C        2.494291413   1.433431258   0.063164526
C        1.231040964   3.570479691   0.386444839
C       -0.011723199   5.699987320   0.038512031
C        4.925352193   1.400081290  -0.287459026
C        3.663481452   3.576841365  -0.226277139
C        2.474207945   5.700134045   0.029204146
O        1.231749872   2.843154128   1.731148130
End final coordinates



     Writing output data file Graphene3x3-O_PBE.save
 
     init_run     :      0.96s CPU      2.58s WALL (       1 calls)
     electrons    :    164.78s CPU    174.52s WALL (      23 calls)
     update_pot   :     13.24s CPU     14.60s WALL (      22 calls)
     forces       :      6.06s CPU      6.79s WALL (      23 calls)

     Called by init_run:
     wfcinit      :      0.06s CPU      0.51s WALL (       1 calls)
     potinit      :      0.57s CPU      0.68s WALL (       1 calls)

     Called by electrons:
     c_bands      :     22.98s CPU     24.01s WALL (     216 calls)
     sum_band     :     16.39s CPU     20.84s WALL (     216 calls)
     v_of_rho     :     20.80s CPU     20.86s WALL (     236 calls)
     newd         :      8.12s CPU     11.52s WALL (     236 calls)
     PAW_pot      :    115.99s CPU    116.10s WALL (     258 calls)
     mix_rho      :      1.63s CPU      1.73s WALL (     216 calls)

     Called by c_bands:
     init_us_2    :      0.35s CPU      0.36s WALL (     455 calls)
     regterg      :     21.33s CPU     22.35s WALL (     216 calls)

     Called by sum_band:
     sum_band:bec :      0.00s CPU      0.00s WALL (     238 calls)
     addusdens    :     10.36s CPU     14.78s WALL (     216 calls)

     Called by *egterg:
     h_psi        :     15.64s CPU     15.65s WALL (     799 calls)
     s_psi        :      0.81s CPU      0.82s WALL (     799 calls)
     g_psi        :      0.20s CPU      0.21s WALL (     582 calls)
     rdiaghg      :      1.96s CPU      2.39s WALL (     773 calls)

     Called by h_psi:
     h_psi:pot    :     15.49s CPU     15.52s WALL (     799 calls)
     h_psi:calbec :      0.94s CPU      0.94s WALL (     799 calls)
     vloc_psi     :     13.74s CPU     13.76s WALL (     799 calls)
     add_vuspsi   :      0.80s CPU      0.82s WALL (     799 calls)

     General routines
     calbec       :      1.43s CPU      1.44s WALL (    1129 calls)
     fft          :      9.61s CPU     10.54s WALL (    3971 calls)
     ffts         :      0.29s CPU      0.29s WALL (     452 calls)
     fftw         :     12.28s CPU     12.22s WALL (   33080 calls)
     interpolate  :      1.90s CPU      1.91s WALL (     452 calls)
     davcio       :      0.02s CPU      0.07s WALL (      23 calls)
 
     Parallel routines
     fft_scatter  :      4.82s CPU      4.83s WALL (   37503 calls)
 
     PWSCF        :  3m16.53s CPU     3m31.42s WALL

 
   This run was terminated on:  15:53:44   7Apr2021            

=------------------------------------------------------------------------------=
   JOB DONE.
=------------------------------------------------------------------------------=
