
     Program PWSCF v.6.1 (svn rev. 13369) starts on 12Apr2021 at 17:25:18 

     This program is part of the open-source Quantum ESPRESSO suite
     for quantum simulation of materials; please cite
         "P. Giannozzi et al., J. Phys.:Condens. Matter 21 395502 (2009);
          URL http://www.quantum-espresso.org", 
     in publications or presentations arising from this work. More details at
     http://www.quantum-espresso.org/quote

     Parallel version (MPI), running on     1 processors
     Waiting for input...
     Reading input from standard input

     Current dimensions of program PWSCF are:
     Max number of different atomic species (ntypx) = 10
     Max number of k-points (npk) =  40000
     Max angular momentum in pseudopotentials (lmaxx) =  3

     IMPORTANT: XC functional enforced from input :
     Exchange-correlation      = REVPBE ( 1  4  4  4 0 0)
     Any further DFT definition will be discarded
     Please, verify this is what you really want


     Subspace diagonalization in iterative solution of the eigenvalue problem:
     a serial algorithm will be used

 
     G-vector sticks info
     --------------------
     sticks:   dense  smooth     PW     G-vecs:    dense   smooth      PW
     Sum         859     859    253                16247    16247    2571
 


     bravais-lattice index     =            4
     lattice parameter (alat)  =      10.2270  a.u.
     unit-cell volume          =     732.8730 (a.u.)^3
     number of atoms/cell      =           21
     number of atomic types    =            3
     number of electrons       =       295.00
     number of Kohn-Sham states=          178
     kinetic-energy cutoff     =      30.0000  Ry
     charge density cutoff     =     120.0000  Ry
     convergence threshold     =      1.0E-05
     mixing beta               =       0.7000
     number of iterations used =            8  plain     mixing
     Exchange-correlation      = REVPBE ( 1  4  4  4 0 0)
     nstep                     =           50


     celldm(1)=  10.227000  celldm(2)=   1.000000  celldm(3)=   0.791140
     celldm(4)=   0.000000  celldm(5)=   0.000000  celldm(6)=   0.000000

     crystal axes: (cart. coord. in units of alat)
               a(1) = (   1.000000   0.000000   0.000000 )  
               a(2) = (  -0.500000   0.866025   0.000000 )  
               a(3) = (   0.000000   0.000000   0.791140 )  

     reciprocal axes: (cart. coord. in units 2 pi/alat)
               b(1) = (  1.000000  0.577350  0.000000 )  
               b(2) = (  0.000000  1.154701  0.000000 )  
               b(3) = (  0.000000  0.000000  1.263999 )  


     PseudoPot. # 1 for Ru read from file:
     /home/ajs0201/workQE/pseudo/Ru_ONCV_PBE-1.0.oncvpsp.upf
     MD5 check sum: be037bb81c227cfb9b1461a9f099f4bd
     Pseudo is Norm-conserving, Zval = 16.0
     Generated using ONCVPSP code by D. R. Hamann
     Using radial grid of 1458 points,  6 beta functions with: 
                l(1) =   0
                l(2) =   0
                l(3) =   1
                l(4) =   1
                l(5) =   2
                l(6) =   2

     PseudoPot. # 2 for N  read from file:
     /home/ajs0201/workQE/pseudo/N.oncvpsp.upf
     MD5 check sum: 563d65bfb082928f0c9eb97172f6c357
     Pseudo is Norm-conserving + core correction, Zval =  5.0
     Generated using ONCVPSP code by D. R. Hamann
     Using radial grid of 1058 points,  4 beta functions with: 
                l(1) =   0
                l(2) =   0
                l(3) =   1
                l(4) =   1

     PseudoPot. # 3 for H  read from file:
     /home/ajs0201/workQE/pseudo/H_ONCV_PBE-1.0.oncvpsp.upf
     MD5 check sum: 1790becc920ee074925cf490c71280fe
     Pseudo is Norm-conserving, Zval =  1.0
     Generated using ONCVPSP code by D. R. Hamann
     Using radial grid of 1166 points,  2 beta functions with: 
                l(1) =   0
                l(2) =   0

     atomic species   valence    mass     pseudopotential
        Ru            16.00   101.07000     Ru( 1.00)
        N              5.00    14.00670     N ( 1.00)
        H              1.00     1.00794     H ( 1.00)

     No symmetry found



   Cartesian axes

     site n.     atom                  positions (alat units)
         1           Ru  tau(   1) = (   0.0000000   0.2886700   0.0000000  )
         2           Ru  tau(   2) = (   0.4999912   0.2886700   0.0000000  )
         3           Ru  tau(   3) = (   0.9999824   0.2886700   0.0000000  )
         4           Ru  tau(   4) = (   0.2499956   0.7216751   0.0000000  )
         5           Ru  tau(   5) = (   0.7499868   0.7216751   0.0000000  )
         6           Ru  tau(   6) = (   1.2499780   0.7216751   0.0000000  )
         7           Ru  tau(   7) = (   0.4999912   1.1546802   0.0000000  )
         8           Ru  tau(   8) = (   0.9999824   1.1546802   0.0000000  )
         9           Ru  tau(   9) = (   1.4999736   1.1546802   0.0000000  )
        10           Ru  tau(  10) = (   0.0000000   0.0000000   0.3955638  )
        11           Ru  tau(  11) = (   0.4999912   0.0000000   0.3955638  )
        12           Ru  tau(  12) = (   0.9999824   0.0000000   0.3955638  )
        13           Ru  tau(  13) = (   0.2499956   0.4330051   0.3955638  )
        14           Ru  tau(  14) = (   0.7499868   0.4330051   0.3955638  )
        15           Ru  tau(  15) = (   1.2499780   0.4330051   0.3955638  )
        16           Ru  tau(  16) = (   0.4999912   0.8660102   0.3955638  )
        17           Ru  tau(  17) = (   0.9999824   0.8660102   0.3955638  )
        18           Ru  tau(  18) = (   1.4999736   0.8660102   0.3955638  )
        19           N   tau(  19) = (   0.4999912   0.2886700   0.6172976  )
        20           H   tau(  20) = (   0.4999912   0.1396572   0.7351127  )
        21           H   tau(  21) = (   0.4999912   0.4376829   0.7351127  )

     number of k points=     5  Marzari-Vanderbilt smearing, width (Ry)=  0.0100
                       cart. coord. in units 2pi/alat
        k(    1) = (   0.0000000   0.0000000   0.0000000), wk =   0.2222222
        k(    2) = (   0.0000000   0.3849002   0.0000000), wk =   0.4444444
        k(    3) = (   0.3333333   0.5773503   0.0000000), wk =   0.4444444
        k(    4) = (  -0.3333333   0.1924501   0.0000000), wk =   0.4444444
        k(    5) = (   0.3333333   0.1924501   0.0000000), wk =   0.4444444

     Dense  grid:    16247 G-vectors     FFT dimensions: (  36,  36,  30)

     Estimated max dynamical RAM per process >      91.73MB

     Check: negative/imaginary core charge=   -0.000113    0.000000

     Initial potential from superposition of free atoms

     starting charge  294.99003, renormalised to  295.00000
     Starting wfc are  186 randomized atomic wfcs

     total cpu time spent up to now is        4.3 secs

     per-process dynamical memory:    32.2 Mb

     Self-consistent Calculation

     iteration #  1     ecut=    30.00 Ry     beta=0.70
     Davidson diagonalization with overlap
     ethr =  1.00E-02,  avg # of iterations =  7.0

     total cpu time spent up to now is       15.1 secs

     total energy              =43069645.75793543 Ry
     Harris-Foulkes estimate   =43069500.96042999 Ry
     estimated scf accuracy    <     168.92009112 Ry

     iteration #  2     ecut=    30.00 Ry     beta=0.70
     Davidson diagonalization with overlap
     ethr =  1.00E-02,  avg # of iterations =  4.6

     total cpu time spent up to now is       23.6 secs

     total energy              =43069640.09615695 Ry
     Harris-Foulkes estimate   =43069257.94533954 Ry
     estimated scf accuracy    <    1148.84042834 Ry

     iteration #  3     ecut=    30.00 Ry     beta=0.70
     Davidson diagonalization with overlap
     ethr =  1.00E-02,  avg # of iterations =  4.0

     total cpu time spent up to now is       30.7 secs

     total energy              =43069518.85407465 Ry
     Harris-Foulkes estimate   =43069493.19108342 Ry
     estimated scf accuracy    <      97.73165690 Ry

     iteration #  4     ecut=    30.00 Ry     beta=0.70
     Davidson diagonalization with overlap
     ethr =  1.00E-02,  avg # of iterations =  3.6

     total cpu time spent up to now is       35.3 secs

     total energy              =43069518.81217799 Ry
     Harris-Foulkes estimate   =43069508.30896161 Ry
     estimated scf accuracy    <      61.48415494 Ry

     iteration #  5     ecut=    30.00 Ry     beta=0.70
     Davidson diagonalization with overlap
     ethr =  1.00E-02,  avg # of iterations =  2.0

     total cpu time spent up to now is       38.7 secs

     total energy              =43069519.92399772 Ry
     Harris-Foulkes estimate   =43069515.01668844 Ry
     estimated scf accuracy    <      34.94508088 Ry

     iteration #  6     ecut=    30.00 Ry     beta=0.70
     Davidson diagonalization with overlap
     ethr =  1.00E-02,  avg # of iterations =  1.8

     total cpu time spent up to now is       41.9 secs

     total energy              =43069521.51902248 Ry
     Harris-Foulkes estimate   =43069518.33394110 Ry
     estimated scf accuracy    <      15.66262275 Ry

     iteration #  7     ecut=    30.00 Ry     beta=0.70
     Davidson diagonalization with overlap
     ethr =  5.31E-03,  avg # of iterations =  4.0

     total cpu time spent up to now is       47.1 secs

     total energy              =43069520.18872707 Ry
     Harris-Foulkes estimate   =43069518.60399774 Ry
     estimated scf accuracy    <      11.72644070 Ry

     iteration #  8     ecut=    30.00 Ry     beta=0.70
     Davidson diagonalization with overlap
     ethr =  3.98E-03,  avg # of iterations =  1.0

     total cpu time spent up to now is       50.0 secs

     total energy              =43069520.23174911 Ry
     Harris-Foulkes estimate   =43069519.12926909 Ry
     estimated scf accuracy    <       7.48585799 Ry

     iteration #  9     ecut=    30.00 Ry     beta=0.70
     Davidson diagonalization with overlap
     ethr =  2.54E-03,  avg # of iterations =  1.0

     total cpu time spent up to now is       53.0 secs

     total energy              =43069519.68527801 Ry
     Harris-Foulkes estimate   =43069519.29203600 Ry
     estimated scf accuracy    <       2.59505894 Ry

     iteration # 10     ecut=    30.00 Ry     beta=0.70
     Davidson diagonalization with overlap
     ethr =  8.80E-04,  avg # of iterations =  5.0

     total cpu time spent up to now is       57.7 secs

     total energy              =43069519.65178696 Ry
     Harris-Foulkes estimate   =43069519.21706842 Ry
     estimated scf accuracy    <       4.13865798 Ry

     iteration # 11     ecut=    30.00 Ry     beta=0.70
     Davidson diagonalization with overlap
     ethr =  8.80E-04,  avg # of iterations =  1.0

     total cpu time spent up to now is       60.7 secs

     total energy              =43069519.58555346 Ry
     Harris-Foulkes estimate   =43069519.44069446 Ry
     estimated scf accuracy    <       0.82542752 Ry

     iteration # 12     ecut=    30.00 Ry     beta=0.70
     Davidson diagonalization with overlap
     ethr =  2.80E-04,  avg # of iterations =  3.2

     total cpu time spent up to now is       64.5 secs

     total energy              =43069519.50812934 Ry
     Harris-Foulkes estimate   =43069519.47017142 Ry
     estimated scf accuracy    <       0.29371649 Ry

     iteration # 13     ecut=    30.00 Ry     beta=0.70
     Davidson diagonalization with overlap
     ethr =  9.96E-05,  avg # of iterations =  1.8

     total cpu time spent up to now is       67.7 secs

     total energy              =43069519.49705409 Ry
     Harris-Foulkes estimate   =43069519.48930812 Ry
     estimated scf accuracy    <       0.03461525 Ry

     iteration # 14     ecut=    30.00 Ry     beta=0.70
     Davidson diagonalization with overlap
     ethr =  1.17E-05,  avg # of iterations =  6.2

     total cpu time spent up to now is       73.3 secs

     total energy              =43069519.49496362 Ry
     Harris-Foulkes estimate   =43069519.48992693 Ry
     estimated scf accuracy    <       0.01781580 Ry

     iteration # 15     ecut=    30.00 Ry     beta=0.70
     Davidson diagonalization with overlap
     ethr =  6.04E-06,  avg # of iterations =  4.6

     total cpu time spent up to now is       78.1 secs

     total energy              =43069519.49403069 Ry
     Harris-Foulkes estimate   =43069519.49048278 Ry
     estimated scf accuracy    <       0.01676098 Ry

     iteration # 16     ecut=    30.00 Ry     beta=0.70
     Davidson diagonalization with overlap
     ethr =  5.68E-06,  avg # of iterations =  2.0

     total cpu time spent up to now is       81.4 secs

     total energy              =43069519.49238026 Ry
     Harris-Foulkes estimate   =43069519.49182019 Ry
     estimated scf accuracy    <       0.00212020 Ry

     iteration # 17     ecut=    30.00 Ry     beta=0.70
     Davidson diagonalization with overlap
     ethr =  7.19E-07,  avg # of iterations =  3.6

     total cpu time spent up to now is       85.7 secs

     total energy              =43069519.49229304 Ry
     Harris-Foulkes estimate   =43069519.49191211 Ry
     estimated scf accuracy    <       0.00128140 Ry

     iteration # 18     ecut=    30.00 Ry     beta=0.70
     Davidson diagonalization with overlap
     ethr =  4.34E-07,  avg # of iterations =  3.0

     total cpu time spent up to now is       89.7 secs

     total energy              =43069519.49224957 Ry
     Harris-Foulkes estimate   =43069519.49183311 Ry
     estimated scf accuracy    <       0.00289508 Ry

     iteration # 19     ecut=    30.00 Ry     beta=0.70
     Davidson diagonalization with overlap
     ethr =  4.34E-07,  avg # of iterations =  2.0

     total cpu time spent up to now is       93.2 secs

     total energy              =43069519.49207613 Ry
     Harris-Foulkes estimate   =43069519.49201801 Ry
     estimated scf accuracy    <       0.00020969 Ry

     iteration # 20     ecut=    30.00 Ry     beta=0.70
     Davidson diagonalization with overlap
     ethr =  7.11E-08,  avg # of iterations =  3.0

     total cpu time spent up to now is       97.3 secs

     total energy              =43069519.49205282 Ry
     Harris-Foulkes estimate   =43069519.49202751 Ry
     estimated scf accuracy    <       0.00014332 Ry

     iteration # 21     ecut=    30.00 Ry     beta=0.70
     Davidson diagonalization with overlap
     ethr =  4.86E-08,  avg # of iterations =  2.0

     total cpu time spent up to now is      100.7 secs

     total energy              =43069519.49204562 Ry
     Harris-Foulkes estimate   =43069519.49203346 Ry
     estimated scf accuracy    <       0.00006532 Ry

     iteration # 22     ecut=    30.00 Ry     beta=0.70
     Davidson diagonalization with overlap
     ethr =  2.21E-08,  avg # of iterations =  2.0

     total cpu time spent up to now is      104.0 secs

     End of self-consistent calculation

          k = 0.0000 0.0000 0.0000 (  2013 PWs)   bands (ev):

  -287.2607-287.1783-287.1252-287.1122-287.0592-287.0226-275.8896-275.8318
  -240.4243-239.5310-238.6552-238.5227-238.3183-238.0866-237.8505-237.6331
  -237.0500-236.8683-104.4901-102.2273-101.9359-101.8902 -84.3341 -81.8340
   -81.6834 -81.5324 -81.4044 -81.2790 -81.1667 -81.1215 -80.9933 -80.7654
   -80.7372 -79.3468 -46.8834 -44.6281 -44.3639 -44.2829 -44.1905 -43.8407
   -43.7868 -43.6327 -43.6135 -42.7494 -42.0406 -42.0263 -41.4769 -39.9480
   -33.7814 -29.5469 -27.7944 -27.1753 -27.0329 -26.8445 -26.7421 -26.7160
   -26.6637 -26.6329 -26.5976 -26.4148 -26.3190 -26.3023 -26.2108 -26.1909
   -26.1092 -26.0369 -25.9974 -24.7445 -17.6902 -14.9061 -12.9193 -12.8906
   -12.4271 -12.3177 -12.0488 -11.9902 -11.8397 -10.8876 -10.6015 -10.3636
     0.7396   1.1987   1.7604   1.8449   1.9601   2.5906  17.3886  17.4041
    17.5186  17.6314  17.7074  17.9274  21.4784  23.4204  24.5645  29.4232
    32.2673  35.1792  37.8013  41.0399  42.6062  42.8055  44.6878  45.3247
    46.4181  47.1785  48.1204  48.6800  49.0123  49.6371  50.3361  50.9193
    51.8665  51.9903  52.8694  52.9569  53.7038  54.3730  54.8464  55.2926
    55.8969  56.3331  56.4693  56.7580  56.9785  57.1962  57.3425  57.4892
    57.6802  57.8912  57.9711  58.2263  58.6986  58.8314  58.8814  59.0922
    59.2792  59.5144  59.7735  60.2121  60.5788  60.6855  60.7676  61.0409
    61.2586  61.4707  61.5776  61.9799  62.1413  62.1972  62.4011  62.5890
    62.6614  62.7950  63.1659  63.2796  63.4479  63.5898  63.6757  63.7451
    63.9371  64.2288  64.2915  64.5504  64.7938  64.9859  65.0564  65.1279
    65.2701  65.3632  65.4896  65.7659  65.9556  66.0345  66.4234  66.6454
    66.9078  67.0213

          k = 0.0000 0.3849 0.0000 (  2028 PWs)   bands (ev):

  -287.3068-287.2079-287.1707-287.1655-287.0401-287.0010-275.8932-275.8343
  -240.5661-240.3228-239.9790-239.1925-238.7377-238.3521-237.9746-237.6023
  -237.4508-236.7069-104.4946-102.2274-101.9360-101.8903 -84.3431 -81.8390
   -81.6859 -81.5340 -81.4073 -81.2813 -81.1706 -81.1203 -80.9945 -80.7685
   -80.7384 -79.3469 -46.3035 -45.9194 -45.6672 -44.9953 -44.8679 -44.7821
   -44.4281 -44.0597 -43.6915 -43.4409 -42.3394 -41.4845 -41.4464 -40.5370
   -33.8198 -29.5081 -27.8063 -27.0805 -27.0484 -26.8234 -26.8070 -26.6938
   -26.6456 -26.6043 -26.5138 -26.4806 -26.4260 -26.3343 -26.2761 -26.2123
   -26.1488 -26.0454 -25.9217 -24.7739 -16.5305 -16.2203 -15.3525 -14.9620
   -13.2704 -12.5980 -12.0685 -11.9786 -11.7408 -11.4164 -11.0312 -10.3249
     0.4616   0.8418   1.7383   1.8647   1.9693   2.7192  17.3301  17.3903
    17.4559  17.6133  17.7060  17.9280  18.8838  23.2891  25.2696  28.9753
    32.2508  35.1625  37.7481  41.1343  42.5041  43.3124  44.3191  44.5785
    46.3991  47.9867  48.2500  48.7893  49.2112  49.5165  50.6645  51.1149
    51.5368  52.2475  52.6242  53.1706  53.7670  54.0418  54.1738  54.5212
    55.1323  55.9265  56.3827  56.6865  56.8533  57.0204  57.1393  57.4847
    57.7906  57.9253  58.1327  58.4938  58.6302  58.8655  59.1070  59.4566
    59.5594  59.8157  60.1421  60.2301  60.4121  60.6629  60.9212  60.9845
    61.1521  61.4493  61.5044  61.6372  61.8347  62.1156  62.4095  62.4689
    62.5508  62.8454  63.0246  63.0974  63.3785  63.4684  63.7481  63.8064
    63.9558  64.1422  64.2172  64.3171  64.5381  64.7202  64.8169  64.9884
    65.1149  65.2246  65.5951  65.7615  66.0084  66.2372  66.3730  66.6852
    66.9624  67.1386

          k = 0.3333 0.5774 0.0000 (  2025 PWs)   bands (ev):

  -287.2697-287.2259-287.1566-287.0984-287.0850-287.0143-275.8918-275.8339
  -240.0100-239.4743-239.0896-238.6198-238.4161-238.3577-238.1956-237.9823
  -237.7567-237.6426-104.4939-102.2273-101.9360-101.8902 -84.3377 -81.8397
   -81.6850 -81.5321 -81.4069 -81.2814 -81.1655 -81.1194 -80.9961 -80.7682
   -80.7401 -79.3531 -46.6692 -45.7655 -45.5341 -44.4165 -44.2484 -44.2271
   -44.1429 -43.5628 -43.3009 -43.2588 -42.7411 -42.1948 -41.4633 -40.6272
   -33.8237 -29.4508 -27.6838 -27.0658 -27.0006 -26.7724 -26.7139 -26.6551
   -26.6233 -26.5629 -26.5083 -26.4637 -26.4222 -26.3531 -26.3220 -26.1719
   -26.1127 -26.0964 -26.0504 -24.8274 -15.5880 -14.7484 -14.1090 -14.0427
   -12.9430 -12.8037 -12.4615 -12.2598 -12.0609 -11.9610 -11.4806 -10.7253
     0.8021   0.9079   1.5693   1.8319   1.9876   2.6819  17.3280  17.3917
    17.4573  17.6145  17.7077  17.9285  21.0753  22.7270  24.5574  29.2006
    32.1910  35.2341  37.8837  41.0520  42.3821  43.2194  44.3512  44.7841
    46.7444  47.6627  48.0922  48.8784  49.1771  49.9439  50.7143  51.0224
    51.4636  52.2977  52.7614  53.1048  53.7215  54.0211  54.2418  54.8109
    55.5544  55.9171  55.9387  56.3396  56.6744  57.0124  57.2472  57.6428
    57.7596  57.8273  58.1285  58.4652  58.7629  59.0470  59.3079  59.4726
    59.6864  60.0342  60.0936  60.3557  60.4622  60.7022  61.1440  61.2409
    61.3492  61.5999  61.7869  61.8837  61.9581  62.0936  62.1963  62.3282
    62.5011  62.6514  62.7741  63.1351  63.4233  63.4633  63.5760  63.8411
    64.0276  64.2903  64.3659  64.6245  64.7499  64.9141  65.0966  65.2056
    65.4190  65.5264  65.6979  65.9211  65.9599  66.1066  66.2641  66.4506
    66.5377  66.7746

          k =-0.3333 0.1925 0.0000 (  2028 PWs)   bands (ev):

  -287.2888-287.2037-287.1502-287.1307-287.0846-287.0366-275.8926-275.8346
  -240.0386-239.8738-239.1760-239.0071-238.8012-238.5063-238.2301-237.9536
  -237.9012-237.3387-104.4939-102.2274-101.9360-101.8903 -84.3425 -81.8344
   -81.6849 -81.5338 -81.4078 -81.2823 -81.1682 -81.1224 -80.9956 -80.7674
   -80.7393 -79.3494 -46.3752 -46.1617 -45.3609 -44.5082 -44.4883 -44.2301
   -43.9617 -43.7804 -43.5500 -43.4181 -43.2800 -42.1421 -41.5266 -41.4804
   -33.7761 -29.5412 -27.7594 -27.1538 -27.0200 -26.7718 -26.7584 -26.7068
   -26.6551 -26.6077 -26.5653 -26.5144 -26.4306 -26.3328 -26.2459 -26.2112
   -26.1101 -26.0809 -25.9906 -24.7797 -16.6957 -15.4534 -14.2254 -13.6638
   -13.4891 -12.8999 -12.4593 -12.0906 -11.9882 -11.8112 -11.4124 -10.8303
     0.7202   0.9187   1.5654   1.8996   1.9879   2.5237  17.3276  17.3889
    17.4564  17.6149  17.7066  17.9280  19.9182  22.7953  24.5290  29.2666
    32.1737  35.1515  37.8566  41.0850  42.2864  43.2389  44.2692  44.6090
    46.8356  47.7245  48.2001  48.7636  48.9955  49.9632  50.7856  51.1874
    51.5498  52.0946  52.8654  53.2721  53.4731  53.8775  54.6055  54.8463
    55.5202  55.7779  55.9893  56.1592  56.5989  57.1702  57.3460  57.4919
    57.6083  58.0607  58.3902  58.6121  58.7676  59.0819  59.3036  59.4708
    59.6261  59.8716  60.0297  60.2765  60.4034  60.6625  60.7691  60.9931
    61.2727  61.4478  61.5562  61.6869  61.8709  61.9375  62.1682  62.2462
    62.4138  62.7032  62.8958  63.0463  63.1770  63.4647  63.6372  63.7962
    64.0225  64.1046  64.3838  64.4835  64.5841  64.6671  64.8789  65.0070
    65.1496  65.2923  65.4185  65.5324  65.9259  66.2032  66.2641  66.6174
    67.0617  67.2478

          k = 0.3333 0.1925 0.0000 (  2028 PWs)   bands (ev):

  -287.2638-287.2066-287.1601-287.1312-287.0908-287.0396-275.8928-275.8347
  -240.0814-239.8291-239.1914-238.9502-238.7806-238.5361-238.3140-237.9250
  -237.8434-237.3034-104.4940-102.2274-101.9360-101.8903 -84.3424 -81.8341
   -81.6845 -81.5336 -81.4058 -81.2804 -81.1681 -81.1226 -80.9961 -80.7695
   -80.7409 -79.3503 -46.3894 -46.1395 -45.3600 -44.4932 -44.4589 -44.2264
   -43.9318 -43.7234 -43.5381 -43.4527 -43.1920 -42.1879 -41.5309 -41.4430
   -33.7762 -29.5366 -27.7532 -27.1356 -26.9972 -26.8330 -26.7448 -26.6843
   -26.6643 -26.5959 -26.5107 -26.4662 -26.3974 -26.3512 -26.2765 -26.2140
   -26.1616 -26.1178 -26.0808 -24.7953 -16.6906 -15.3297 -14.2142 -13.5866
   -13.4317 -12.9046 -12.5447 -12.0680 -12.0178 -11.7314 -11.3633 -10.7510
     0.7216   0.9170   1.5611   1.8907   1.9978   2.5290  17.3899  17.4033
    17.5181  17.6324  17.7087  17.9262  20.0359  22.8052  24.3948  29.1860
    32.1922  35.1239  37.8495  40.9280  42.5174  42.8137  44.9503  45.3605
    46.6394  47.3319  47.8898  48.4411  48.8801  49.7733  50.4536  51.3395
    51.8338  52.4054  53.0285  53.2435  53.7795  54.0438  54.6692  55.1124
    55.6392  55.8914  56.0868  56.2592  56.7658  56.9984  57.1534  57.3882
    57.8049  57.9259  58.2405  58.4525  58.7447  59.0034  59.2167  59.3553
    59.6330  59.8694  59.9864  60.2592  60.3794  60.5726  60.7342  60.9795
    61.2616  61.4349  61.6987  61.7969  61.9878  62.1906  62.2996  62.5999
    62.7691  63.0917  63.1589  63.2928  63.4021  63.6605  63.7587  64.0335
    64.1443  64.3047  64.5234  64.6533  64.7865  64.8683  64.9390  65.1497
    65.2735  65.4171  65.4619  65.5858  65.7544  65.9001  66.0164  66.3486
    66.4546  66.5826

     the Fermi energy is    61.7865 ev

!    total energy              =43069519.49204462 Ry
     Harris-Foulkes estimate   =43069519.49203841 Ry
     estimated scf accuracy    <       0.00000665 Ry

     The total energy is the sum of the following terms:

     one-electron contribution =   -4032.66011295 Ry
     hartree contribution      =    2019.64408993 Ry
     xc contribution           =    -498.05072187 Ry
     ewald contribution        =43072030.55872168 Ry
     smearing contrib. (-TS)   =       0.00006782 Ry

     convergence has been achieved in  22 iterations

     Forces acting on atoms (cartesian axes, Ry/au):

     atom    1 type  1   force = ****************************    0.00600942
     atom    2 type  1   force = ****************************   16.09025308
     atom    3 type  1   force = ****************************    0.00600911
     atom    4 type  1   force = **************   -0.00358963    0.02529858
     atom    5 type  1   force =     0.04280551   -0.16884768    0.03865471
     atom    6 type  1   force = **************   -0.00384855    0.02526392
     atom    7 type  1   force = ****************************    0.00601351
     atom    8 type  1   force = ****************************   16.09005246
     atom    9 type  1   force = ****************************    0.00601322
     atom   10 type  1   force = ****************************   -0.00410100
     atom   11 type  1   force = ****************************   -0.35907285
     atom   12 type  1   force = ****************************   -0.00411726
     atom   13 type  1   force = **************    0.17945134   -0.26063426
     atom   14 type  1   force =     0.10811596    0.28675976   -0.26319416
     atom   15 type  1   force = **************    0.17913641   -0.26064746
     atom   16 type  1   force = ****************************   -0.00412615
     atom   17 type  1   force = ****************************   -0.35900787
     atom   18 type  1   force = ****************************   -0.00414242
     atom   19 type  2   force =     0.13341057   -0.05100391  -25.78980409
     atom   20 type  3   force =    -0.07433443   -7.23892952   -2.45535994
     atom   21 type  3   force =     0.06992689    7.24141361   -2.52936053

     Total force = ************     Total SCF correction =     0.015966

     BFGS Geometry Optimization

     number of scf cycles    =   1
     number of bfgs steps    =   0

     energy   new            = ****************** Ry

     new trust radius        =       0.5000000000 bohr
     new conv_thr            =       0.0000100000 Ry


ATOMIC_POSITIONS (angstrom)
Ru       0.229140489   1.694546330   0.000000000
Ru       2.769952898   1.673195234   0.000000000
Ru       5.283693502   1.784138378   0.000000000
Ru       1.481056498   3.905630230   0.000000000
Ru       4.058850000   3.905630230   0.000000000
Ru       6.636643502   3.905630230   0.000000000
Ru       2.834006498   6.027122082   0.000000000
Ru       5.347747102   6.138065226   0.000000000
Ru       7.888559511   6.116714130   0.000000000
Ru       0.229140489   0.132294240   2.140750000
Ru       2.769952898   0.110943144   2.140750000
Ru       5.283693502   0.221886288   2.140750000
Ru       1.481056498   2.343378140   2.140750000
Ru       4.058850000   2.343378140   2.140750000
Ru       6.636643502   2.343378140   2.140750000
Ru       2.834006498   4.464869992   2.140750000
Ru       5.347747102   4.575813136   2.140750000
Ru       7.888559511   4.554462040   2.140750000
N        2.705900000   1.562252090   3.340750000
H        2.705900000   0.755810090   3.978353000
H        2.705900000   2.368694090   3.978353000



     Writing output data file Ruthenium4x3x2-NH2_RPBE.save
     NEW-OLD atomic charge density approx. for the potential

     Check: negative/imaginary core charge=   -0.000113    0.000000

     total cpu time spent up to now is      105.4 secs

     per-process dynamical memory:    32.4 Mb

     Self-consistent Calculation

     iteration #  1     ecut=    30.00 Ry     beta=0.70
     Davidson diagonalization with overlap
     ethr =  1.00E-06,  avg # of iterations =  8.0

     total cpu time spent up to now is      118.0 secs

     total energy              =    2929.48835009 Ry
     Harris-Foulkes estimate   =    2908.22989242 Ry
     estimated scf accuracy    <      25.65784047 Ry

     iteration #  2     ecut=    30.00 Ry     beta=0.70
     Davidson diagonalization with overlap
     ethr =  8.70E-03,  avg # of iterations =  4.0

     total cpu time spent up to now is      124.0 secs

     total energy              =    2937.97867083 Ry
     Harris-Foulkes estimate   =    2874.57991308 Ry
     estimated scf accuracy    <     216.05980550 Ry

     iteration #  3     ecut=    30.00 Ry     beta=0.70
     Davidson diagonalization with overlap
     ethr =  8.70E-03,  avg # of iterations =  4.0

     total cpu time spent up to now is      130.4 secs

     total energy              =    2917.14731639 Ry
     Harris-Foulkes estimate   =    2911.27528646 Ry
     estimated scf accuracy    <      14.96440038 Ry

     iteration #  4     ecut=    30.00 Ry     beta=0.70
     Davidson diagonalization with overlap
     ethr =  5.07E-03,  avg # of iterations =  3.2

     total cpu time spent up to now is      134.8 secs

     total energy              =    2915.63613239 Ry
     Harris-Foulkes estimate   =    2912.56433970 Ry
     estimated scf accuracy    <      12.74127510 Ry

     iteration #  5     ecut=    30.00 Ry     beta=0.70
     Davidson diagonalization with overlap
     ethr =  4.32E-03,  avg # of iterations =  2.2

     total cpu time spent up to now is      138.3 secs

     total energy              =    2914.35293264 Ry
     Harris-Foulkes estimate   =    2913.68589229 Ry
     estimated scf accuracy    <       2.24586361 Ry

     iteration #  6     ecut=    30.00 Ry     beta=0.70
     Davidson diagonalization with overlap
     ethr =  7.61E-04,  avg # of iterations =  2.8

     total cpu time spent up to now is      142.3 secs

     total energy              =    2914.19522903 Ry
     Harris-Foulkes estimate   =    2913.69118453 Ry
     estimated scf accuracy    <       2.09202694 Ry

     iteration #  7     ecut=    30.00 Ry     beta=0.70
     Davidson diagonalization with overlap
     ethr =  7.09E-04,  avg # of iterations =  2.0

     total cpu time spent up to now is      145.7 secs

     total energy              =    2913.99459202 Ry
     Harris-Foulkes estimate   =    2913.90065656 Ry
     estimated scf accuracy    <       0.32458418 Ry

     iteration #  8     ecut=    30.00 Ry     beta=0.70
     Davidson diagonalization with overlap
     ethr =  1.10E-04,  avg # of iterations =  3.2

     total cpu time spent up to now is      150.0 secs

     total energy              =    2913.97607791 Ry
     Harris-Foulkes estimate   =    2913.90433079 Ry
     estimated scf accuracy    <       0.31877315 Ry

     iteration #  9     ecut=    30.00 Ry     beta=0.70
     Davidson diagonalization with overlap
     ethr =  1.08E-04,  avg # of iterations =  2.0

     total cpu time spent up to now is      153.3 secs

     total energy              =    2913.94362729 Ry
     Harris-Foulkes estimate   =    2913.93353116 Ry
     estimated scf accuracy    <       0.03625868 Ry

     iteration # 10     ecut=    30.00 Ry     beta=0.70
     Davidson diagonalization with overlap
     ethr =  1.23E-05,  avg # of iterations =  5.2

     total cpu time spent up to now is      158.6 secs

     total energy              =    2913.94176162 Ry
     Harris-Foulkes estimate   =    2913.93307406 Ry
     estimated scf accuracy    <       0.04091006 Ry

     iteration # 11     ecut=    30.00 Ry     beta=0.70
     Davidson diagonalization with overlap
     ethr =  1.23E-05,  avg # of iterations =  2.2

     total cpu time spent up to now is      162.0 secs

     total energy              =    2913.93774410 Ry
     Harris-Foulkes estimate   =    2913.93643750 Ry
     estimated scf accuracy    <       0.00406270 Ry

     iteration # 12     ecut=    30.00 Ry     beta=0.70
     Davidson diagonalization with overlap
     ethr =  1.38E-06,  avg # of iterations =  4.6

     total cpu time spent up to now is      166.9 secs

     total energy              =    2913.93734661 Ry
     Harris-Foulkes estimate   =    2913.93660727 Ry
     estimated scf accuracy    <       0.00311823 Ry

     iteration # 13     ecut=    30.00 Ry     beta=0.70
     Davidson diagonalization with overlap
     ethr =  1.06E-06,  avg # of iterations =  2.0

     total cpu time spent up to now is      170.3 secs

     total energy              =    2913.93704903 Ry
     Harris-Foulkes estimate   =    2913.93688427 Ry
     estimated scf accuracy    <       0.00050725 Ry

     iteration # 14     ecut=    30.00 Ry     beta=0.70
     Davidson diagonalization with overlap
     ethr =  1.72E-07,  avg # of iterations =  2.2

     total cpu time spent up to now is      174.0 secs

     total energy              =    2913.93700176 Ry
     Harris-Foulkes estimate   =    2913.93688309 Ry
     estimated scf accuracy    <       0.00055134 Ry

     iteration # 15     ecut=    30.00 Ry     beta=0.70
     Davidson diagonalization with overlap
     ethr =  1.72E-07,  avg # of iterations =  2.0

     total cpu time spent up to now is      177.3 secs

     total energy              =    2913.93695022 Ry
     Harris-Foulkes estimate   =    2913.93693761 Ry
     estimated scf accuracy    <       0.00004327 Ry

     iteration # 16     ecut=    30.00 Ry     beta=0.70
     Davidson diagonalization with overlap
     ethr =  1.47E-08,  avg # of iterations =  2.0

     total cpu time spent up to now is      180.9 secs

     total energy              =    2913.93694717 Ry
     Harris-Foulkes estimate   =    2913.93693708 Ry
     estimated scf accuracy    <       0.00003648 Ry

     iteration # 17     ecut=    30.00 Ry     beta=0.70
     Davidson diagonalization with overlap
     ethr =  1.24E-08,  avg # of iterations =  2.0

     total cpu time spent up to now is      184.4 secs

     total energy              =    2913.93694375 Ry
     Harris-Foulkes estimate   =    2913.93693849 Ry
     estimated scf accuracy    <       0.00002357 Ry

     iteration # 18     ecut=    30.00 Ry     beta=0.70
     Davidson diagonalization with overlap
     ethr =  7.99E-09,  avg # of iterations =  2.0

     total cpu time spent up to now is      187.7 secs

     End of self-consistent calculation

          k = 0.0000 0.0000 0.0000 (  2013 PWs)   bands (ev):

  -255.2802-255.0610-240.2948-240.0595-191.0470-190.8000-189.3825-189.1575
  -132.6827-132.4652-128.9231-128.7362-128.3381-128.2048-116.0965-115.8769
  -105.2013-104.9466-103.5121 -99.7045 -99.5596 -99.3875 -81.2688 -76.8037
   -76.4758 -76.4096 -76.3550 -76.2381 -76.1404 -76.0983 -66.4494 -64.3301
   -64.2122 -63.9672 -44.2720 -43.8878 -40.3913 -40.0783 -39.6672 -39.6218
   -38.7266 -38.4058 -33.3900 -32.9533 -25.7636 -24.7696 -24.5692 -24.4494
   -23.9986 -21.8017 -19.2980 -18.9593 -18.2300 -18.1566 -18.1240 -17.9366
   -17.8584 -17.7911 -17.7431 -16.9983 -13.4719 -13.3697 -13.2869 -13.1715
   -13.0650 -12.9459 -12.7460 -12.2955 -12.1130 -11.8798 -11.8120 -11.5836
     1.5978   2.5298   3.1236   3.2964   9.0399  10.0370  16.9807  17.0946
    17.1950  17.3156  17.5359  17.5970  26.1163  26.2498  28.7227  29.2827
    30.4325  31.1758  33.0594  34.0703  34.9570  35.1664  36.7959  37.4463
    38.4760  39.2534  39.9464  40.1561  41.0320  41.3187  42.4133  43.9056
    44.2426  44.5983  45.5090  46.0711  46.4005  48.5272  49.0692  50.0964
    50.7120  51.1930  51.6952  52.8298  53.6008  53.7427  53.9133  54.0119
    54.2303  54.3199  54.6886  54.8329  54.9966  55.2578  55.4008  56.0644
    56.0968  56.3882  56.6949  57.0469  57.1843  57.4599  57.5053  57.7764
    58.0079  58.1563  58.3790  58.7358  58.9875  59.1006  59.5072  59.6544
    60.2720  60.4263  60.5208  60.7465  60.8887  61.0372  61.4678  61.5576
    61.6899  61.9775  62.0975  62.3618  62.9303  63.1836  63.7665  63.7710
    64.1236  64.4270  64.7897  65.1691  65.1997  65.4362  65.7838  66.1592
    66.4689  66.7075  66.8921  67.0334  67.2642  67.6082  67.8839  68.0004
    68.2237  68.2779

          k = 0.0000 0.3849 0.0000 (  2028 PWs)   bands (ev):

  -255.3022-255.0764-240.3947-239.9481-191.2122-190.8890-189.5070-189.1843
  -133.3839-132.5244-129.0001-128.6524-128.2691-128.0843-116.2436-115.9509
  -105.5291-104.9978-103.5169 -99.7047 -99.5599 -99.3877 -81.2806 -76.8069
   -76.4756 -76.4120 -76.3596 -76.2427 -76.1439 -76.0984 -66.4571 -64.3379
   -64.2153 -63.9694 -45.0760 -43.1261 -41.2736 -41.0532 -39.9696 -39.8160
   -39.5336 -38.3360 -33.7146 -33.0927 -25.7804 -25.1951 -24.8410 -24.4753
   -24.3171 -21.8133 -19.4213 -18.5111 -18.2203 -18.1604 -18.0859 -18.0212
   -17.9385 -17.8467 -17.7665 -17.0180 -13.4608 -13.3661 -13.3259 -13.2310
   -13.0554 -12.9333 -12.7818 -12.2900 -12.1138 -11.9262 -11.8283 -11.5959
     2.0553   2.3082   3.0241   3.9045   7.9637   9.9606  16.9780  17.0373
    17.1502  17.2993  17.5363  17.5997  24.9929  26.2757  28.9731  29.7867
    30.0608  30.9843  32.9661  33.5785  34.6034  35.2409  36.6126  37.4195
    38.3660  39.2426  39.5486  40.2156  40.9267  41.8484  42.7663  43.5151
    44.1577  44.4755  45.4662  45.7981  46.5592  48.3809  49.2342  50.1195
    50.2539  50.9361  51.9227  52.2979  52.5305  52.8526  53.5480  53.7317
    54.0280  54.4535  54.6497  54.9134  55.0669  55.2832  55.3852  55.7393
    56.0157  56.5250  56.6751  56.9485  57.1679  57.4487  57.5021  57.6712
    58.0177  58.1246  58.8704  59.0592  59.2034  59.3792  59.5668  59.9768
    60.1559  60.4355  60.6983  60.9641  61.2077  61.2967  61.5462  61.7414
    61.9931  62.2268  62.5179  62.5979  63.0349  63.1502  63.6357  63.8007
    63.9354  64.3219  64.7696  64.9951  65.4234  65.5129  65.8039  66.1792
    66.6154  66.7245  66.8958  67.0980  67.1770  67.4322  67.5728  67.6983
    67.8449  68.1841

          k = 0.3333 0.5774 0.0000 (  2025 PWs)   bands (ev):

  -255.3080-255.0890-240.1320-239.9165-191.1786-190.9486-189.5231-189.2873
  -133.2043-132.9575-128.4374-128.3427-128.2260-128.0701-116.2829-116.0210
  -105.5625-105.2440-103.5166 -99.7047 -99.5600 -99.3878 -81.2725 -76.8125
   -76.4722 -76.4123 -76.3586 -76.2346 -76.1447 -76.0937 -66.4628 -64.3380
   -64.2221 -63.9766 -43.2218 -42.9743 -41.0501 -40.6130 -40.3094 -40.2534
   -40.1268 -39.6378 -33.0373 -32.2011 -25.7865 -25.1935 -25.0936 -24.9000
   -24.6096 -21.7615 -18.9090 -18.5792 -18.2295 -18.1023 -18.0019 -17.9611
   -17.9227 -17.8850 -17.7459 -17.0550 -13.4542 -13.3609 -13.2991 -13.1624
   -13.0795 -12.9076 -12.8113 -12.2846 -12.1088 -11.9467 -11.8604 -11.6379
     2.7105   2.9880   3.0990   3.8011   8.4194   9.7570  16.9790  17.0408
    17.1522  17.3016  17.5381  17.6026  25.3718  25.7448  29.1939  29.9027
    30.1590  31.1949  33.0329  33.4099  34.9068  35.3632  36.8485  37.0998
    38.4150  38.5524  39.5405  40.5295  40.9826  42.1516  42.3053  42.6523
    44.5417  45.1577  46.2261  46.6598  47.1107  47.8712  48.5565  49.5903
    50.0686  51.0824  51.7475  52.0756  52.4393  52.7431  53.4267  53.8354
    54.2070  54.5461  54.6869  54.8360  55.1531  55.2608  55.4532  55.9184
    56.1029  56.2194  56.6444  57.2819  57.3261  57.6138  57.8855  58.0173
    58.1611  58.6700  58.7889  59.0540  59.4303  59.5309  59.8401  60.1198
    60.6090  60.7567  60.9027  61.0573  61.3106  61.5607  61.7082  61.9036
    62.1094  62.2165  62.4243  62.5941  62.9561  63.0317  63.2807  63.4563
    63.5839  63.9709  64.1967  64.6191  64.8799  65.1687  65.3799  65.7482
    65.8718  66.1845  66.4133  66.6943  67.0032  67.2031  67.2708  67.8057
    68.2342  68.3768

          k =-0.3333 0.1925 0.0000 (  2028 PWs)   bands (ev):

  -255.2990-255.0794-240.3227-240.0186-191.1860-190.9030-189.4647-189.2366
  -133.0545-132.8367-128.8648-128.5851-128.3981-128.1626-116.2242-115.9713
  -105.4036-105.1246-103.5165 -99.7046 -99.5601 -99.3879 -81.2809 -76.8093
   -76.4775 -76.4129 -76.3586 -76.2393 -76.1439 -76.0983 -66.4461 -64.3311
   -64.2221 -63.9770 -44.6842 -43.4876 -40.8079 -40.6946 -40.3550 -39.8279
   -39.5501 -38.6902 -34.0475 -32.7870 -25.7876 -24.9967 -24.8328 -24.5495
   -24.4894 -21.7937 -19.1420 -18.7457 -18.2132 -18.1667 -18.1145 -18.0177
   -17.9605 -17.8126 -17.7671 -17.0456 -13.4595 -13.3838 -13.3198 -13.1887
   -13.0793 -12.9356 -12.7807 -12.2901 -12.1069 -11.8927 -11.8625 -11.6325
     1.9526   2.6581   3.0559   3.5540   8.4048   9.5005  16.9724  17.0374
    17.1498  17.3023  17.5373  17.5991  25.5348  25.7012  29.0480  29.5308
    30.2960  31.0692  33.0522  33.8455  34.8734  35.3410  36.7371  37.2267
    37.8666  39.1163  39.6576  40.4641  41.0419  41.5215  42.0593  43.0915
    44.1420  44.3875  46.2189  46.9953  47.3652  48.5887  49.0940  49.7791
    50.3515  50.8997  51.2481  51.6788  52.4325  52.8973  53.5254  53.6391
    53.7387  54.2351  54.4428  54.7874  55.0983  55.4041  55.7318  55.8981
    56.3423  56.4607  56.6859  56.8899  57.1664  57.4970  57.6521  58.1474
    58.2281  58.4149  58.8942  59.0598  59.5062  59.5648  59.7379  59.8456
    60.0286  60.3340  60.6654  60.9102  61.0442  61.1852  61.4414  61.7217
    61.9966  62.2280  62.5590  62.6955  63.0412  63.1843  63.3410  63.6924
    63.9133  64.0839  64.4998  64.7002  65.2139  65.3270  65.4897  65.7713
    66.0442  66.3903  66.7004  67.0204  67.3201  67.7355  67.9655  68.0973
    68.4068  68.5734

          k = 0.3333 0.1925 0.0000 (  2028 PWs)   bands (ev):

  -255.3013-255.0812-240.3115-240.0154-191.0900-190.8518-189.5193-189.2795
  -133.0241-132.8052-128.9053-128.6424-128.3408-128.2718-116.1880-115.9553
  -105.4912-105.1385-103.5168 -99.7047 -99.5601 -99.3879 -81.2799 -76.8035
   -76.4755 -76.4117 -76.3583 -76.2395 -76.1437 -76.0991 -66.4592 -64.3373
   -64.2223 -63.9768 -44.5537 -43.4491 -40.8975 -40.6229 -40.2586 -39.9318
   -39.2865 -39.0868 -33.0705 -32.4024 -25.7542 -25.2405 -24.8979 -24.3367
   -24.0420 -21.8026 -19.7304 -19.0527 -18.2334 -18.1781 -18.0844 -17.9783
   -17.9395 -17.8268 -17.7951 -17.0368 -13.4785 -13.3667 -13.2975 -13.1900
   -13.0761 -12.9408 -12.7960 -12.2857 -12.1100 -11.9449 -11.8468 -11.6315
     2.0027   2.7468   3.2412   3.6325   8.3938   9.5120  16.9838  17.0933
    17.1950  17.3157  17.5323  17.6029  25.5513  25.7113  29.0190  29.3754
    30.1030  30.9720  32.9212  33.0205  34.4693  35.3453  36.9800  37.4050
    38.0172  39.0811  39.5289  40.1503  40.9464  41.7146  42.9231  43.7641
    44.5814  45.1543  45.4489  46.2315  47.2332  47.7749  49.4771  49.6955
    50.4152  51.2162  51.7907  52.6641  53.0560  53.4709  53.7907  54.1661
    54.3069  54.5919  54.6977  54.9915  55.2716  55.4198  55.6258  55.7725
    56.3549  56.6784  56.9126  57.0833  57.1463  57.6060  57.8002  58.0038
    58.3628  58.4909  58.9384  59.1453  59.2912  59.5878  59.8422  59.9850
    60.2760  60.4046  60.6680  60.8766  61.1435  61.2589  61.2798  61.4975
    61.6497  61.8741  62.0315  62.5200  62.7940  62.9693  63.2444  63.4166
    63.6750  63.9715  64.1913  64.4452  64.5004  64.6355  65.1452  65.3596
    65.4271  65.6216  66.0761  66.3841  66.8512  67.1222  67.3192  67.6442
    67.8102  68.1224

     the Fermi energy is    60.9313 ev

!    total energy              =    2913.93694262 Ry
     Harris-Foulkes estimate   =    2913.93694090 Ry
     estimated scf accuracy    <       0.00000186 Ry

     The total energy is the sum of the following terms:

     one-electron contribution =   -3374.42381807 Ry
     hartree contribution      =    1866.50335779 Ry
     xc contribution           =    -488.55361442 Ry
     ewald contribution        =    4910.41163399 Ry
     smearing contrib. (-TS)   =      -0.00061667 Ry

     convergence has been achieved in  18 iterations

     Forces acting on atoms (cartesian axes, Ry/au):

     atom    1 type  1   force =  1579.77141574  912.39722231    0.00884527
     atom    2 type  1   force =  1057.91398513 1829.83549903   15.50836395
     atom    3 type  1   force =  -907.39804886 1571.48852954    0.01636486
     atom    4 type  1   force =  2114.27351242   -0.22097419    0.01611505
     atom    5 type  1   force =     0.14881880   -0.15640393    0.01799926
     atom    6 type  1   force = -2114.78206268    0.09280353    0.02946762
     atom    7 type  1   force =   906.98117143-1571.12685917   -0.00902731
     atom    8 type  1   force = -1057.86767558-1829.84205307   15.33401907
     atom    9 type  1   force = -1579.68307903 -911.77339926    0.00401781
     atom   10 type  1   force =  1579.72056910  911.67302011    0.02861139
     atom   11 type  1   force =  1057.54050179 1831.60310488   -0.24224943
     atom   12 type  1   force =  -907.16249591 1571.08966787    0.02697317
     atom   13 type  1   force =  2114.67070580    0.13477522   -0.21683939
     atom   14 type  1   force =     0.01482798    0.24450393   -0.16974921
     atom   15 type  1   force = -2114.58759389    0.23069932   -0.19172376
     atom   16 type  1   force =   907.58481262-1571.40385768   -0.02825145
     atom   17 type  1   force = -1057.45420926-1832.07440571   -0.26539036
     atom   18 type  1   force = -1579.92521358 -912.35406694   -0.04171762
     atom   19 type  2   force =     0.24074302    0.10414154  -24.29189981
     atom   20 type  3   force =     0.19455149   -7.44325272   -2.74852096
     atom   21 type  3   force =    -0.19523656    7.50130538   -2.78540815

     Total force =  7889.746418     Total SCF correction =     0.012148

     number of scf cycles    =   2
     number of bfgs steps    =   1

     energy   old            = ****************** Ry
     energy   new            =    2913.9369426248 Ry

     CASE: energy  _new > energy  _old

     new trust radius        =       0.2500686442 bohr
     new conv_thr            =       0.0000100000 Ry


ATOMIC_POSITIONS (angstrom)
Ru       0.114601703   1.628417372   0.000000000
Ru       2.737935243   1.617738893   0.000000000
Ru       5.347729164   1.673225696   0.000000000
Ru       1.417020836   3.905630230   0.000000000
Ru       4.058850000   3.905630230   0.000000000
Ru       6.700679164   3.905630230   0.000000000
Ru       2.769970836   6.138034764   0.000000000
Ru       5.379764757   6.193521567   0.000000000
Ru       8.003098297   6.182843088   0.000000000
Ru       0.114601703   0.066165282   2.140750000
Ru       2.737935243   0.055486803   2.140750000
Ru       5.347729164   0.110973606   2.140750000
Ru       1.417020836   2.343378140   2.140750000
Ru       4.058850000   2.343378140   2.140750000
Ru       6.700679164   2.343378140   2.140750000
Ru       2.769970836   4.575782674   2.140750000
Ru       5.379764757   4.631269477   2.140750000
Ru       8.003098297   4.620590998   2.140750000
N        2.705900000   1.562252090   3.340750000
H        2.705900000   0.755810090   3.978353000
H        2.705900000   2.368694090   3.978353000



     Writing output data file Ruthenium4x3x2-NH2_RPBE.save
     NEW-OLD atomic charge density approx. for the potential

     Check: negative/imaginary core charge=   -0.000113    0.000000

     total cpu time spent up to now is      188.5 secs

     per-process dynamical memory:    32.4 Mb

     Self-consistent Calculation

     iteration #  1     ecut=    30.00 Ry     beta=0.70
     Davidson diagonalization with overlap
     c_bands:  1 eigenvalues not converged
     ethr =  1.00E-06,  avg # of iterations = 15.8

     total cpu time spent up to now is      204.9 secs

     total energy              =   14711.94967224 Ry
     Harris-Foulkes estimate   =   14698.57629913 Ry
     estimated scf accuracy    <      16.12419595 Ry

     iteration #  2     ecut=    30.00 Ry     beta=0.70
     Davidson diagonalization with overlap
     ethr =  5.47E-03,  avg # of iterations =  4.0

     total cpu time spent up to now is      211.4 secs

     total energy              =   14726.31308133 Ry
     Harris-Foulkes estimate   =   14648.75503968 Ry
     estimated scf accuracy    <     379.83734599 Ry

     iteration #  3     ecut=    30.00 Ry     beta=0.70
     Davidson diagonalization with overlap
     ethr =  5.47E-03,  avg # of iterations =  4.8

     total cpu time spent up to now is      217.9 secs

     total energy              =   14701.93829343 Ry
     Harris-Foulkes estimate   =   14700.54962807 Ry
     estimated scf accuracy    <       2.87457248 Ry

     iteration #  4     ecut=    30.00 Ry     beta=0.70
     Davidson diagonalization with overlap
     ethr =  9.74E-04,  avg # of iterations =  4.4

     total cpu time spent up to now is      223.4 secs

     total energy              =   14702.21079357 Ry
     Harris-Foulkes estimate   =   14700.17305501 Ry
     estimated scf accuracy    <      11.10465361 Ry

     iteration #  5     ecut=    30.00 Ry     beta=0.70
     Davidson diagonalization with overlap
     ethr =  9.74E-04,  avg # of iterations =  4.4

     total cpu time spent up to now is      228.6 secs

     total energy              =   14701.41399966 Ry
     Harris-Foulkes estimate   =   14700.86112354 Ry
     estimated scf accuracy    <       2.70917169 Ry

     iteration #  6     ecut=    30.00 Ry     beta=0.70
     Davidson diagonalization with overlap
     ethr =  9.18E-04,  avg # of iterations =  2.4

     total cpu time spent up to now is      232.2 secs

     total energy              =   14701.33059478 Ry
     Harris-Foulkes estimate   =   14700.87388108 Ry
     estimated scf accuracy    <       2.67607801 Ry

     iteration #  7     ecut=    30.00 Ry     beta=0.70
     Davidson diagonalization with overlap
     ethr =  9.07E-04,  avg # of iterations =  2.0

     total cpu time spent up to now is      235.5 secs

     total energy              =   14701.13002977 Ry
     Harris-Foulkes estimate   =   14701.05070990 Ry
     estimated scf accuracy    <       0.32797641 Ry

     iteration #  8     ecut=    30.00 Ry     beta=0.70
     Davidson diagonalization with overlap
     ethr =  1.11E-04,  avg # of iterations =  4.2

     total cpu time spent up to now is      240.1 secs

     total energy              =   14701.10572153 Ry
     Harris-Foulkes estimate   =   14701.04706638 Ry
     estimated scf accuracy    <       0.29526493 Ry

     iteration #  9     ecut=    30.00 Ry     beta=0.70
     Davidson diagonalization with overlap
     ethr =  1.00E-04,  avg # of iterations =  2.0

     total cpu time spent up to now is      243.4 secs

     total energy              =   14701.08010006 Ry
     Harris-Foulkes estimate   =   14701.07640028 Ry
     estimated scf accuracy    <       0.01026083 Ry

     iteration # 10     ecut=    30.00 Ry     beta=0.70
     Davidson diagonalization with overlap
     ethr =  3.48E-06,  avg # of iterations =  5.8

     total cpu time spent up to now is      249.8 secs

     total energy              =   14701.07905898 Ry
     Harris-Foulkes estimate   =   14701.07586173 Ry
     estimated scf accuracy    <       0.01140978 Ry

     iteration # 11     ecut=    30.00 Ry     beta=0.70
     Davidson diagonalization with overlap
     ethr =  3.48E-06,  avg # of iterations =  4.6

     total cpu time spent up to now is      254.6 secs

     total energy              =   14701.07803509 Ry
     Harris-Foulkes estimate   =   14701.07614109 Ry
     estimated scf accuracy    <       0.00839118 Ry

     iteration # 12     ecut=    30.00 Ry     beta=0.70
     Davidson diagonalization with overlap
     ethr =  2.84E-06,  avg # of iterations =  4.8

     total cpu time spent up to now is      259.2 secs

     total energy              =   14701.07749370 Ry
     Harris-Foulkes estimate   =   14701.07660973 Ry
     estimated scf accuracy    <       0.00370501 Ry

     iteration # 13     ecut=    30.00 Ry     beta=0.70
     Davidson diagonalization with overlap
     ethr =  1.26E-06,  avg # of iterations =  2.4

     total cpu time spent up to now is      262.9 secs

     total energy              =   14701.07717607 Ry
     Harris-Foulkes estimate   =   14701.07688872 Ry
     estimated scf accuracy    <       0.00163415 Ry

     iteration # 14     ecut=    30.00 Ry     beta=0.70
     Davidson diagonalization with overlap
     ethr =  5.54E-07,  avg # of iterations =  2.0

     total cpu time spent up to now is      266.3 secs

     total energy              =   14701.07706394 Ry
     Harris-Foulkes estimate   =   14701.07693734 Ry
     estimated scf accuracy    <       0.00075265 Ry

     iteration # 15     ecut=    30.00 Ry     beta=0.70
     Davidson diagonalization with overlap
     ethr =  2.55E-07,  avg # of iterations =  2.0

     total cpu time spent up to now is      269.6 secs

     total energy              =   14701.07705140 Ry
     Harris-Foulkes estimate   =   14701.07694340 Ry
     estimated scf accuracy    <       0.00074037 Ry

     iteration # 16     ecut=    30.00 Ry     beta=0.70
     Davidson diagonalization with overlap
     ethr =  2.51E-07,  avg # of iterations =  1.0

     total cpu time spent up to now is      272.6 secs

     total energy              =   14701.07700085 Ry
     Harris-Foulkes estimate   =   14701.07699053 Ry
     estimated scf accuracy    <       0.00004815 Ry

     iteration # 17     ecut=    30.00 Ry     beta=0.70
     Davidson diagonalization with overlap
     ethr =  1.63E-08,  avg # of iterations =  3.0

     total cpu time spent up to now is      276.5 secs

     total energy              =   14701.07699596 Ry
     Harris-Foulkes estimate   =   14701.07699049 Ry
     estimated scf accuracy    <       0.00002504 Ry

     iteration # 18     ecut=    30.00 Ry     beta=0.70
     Davidson diagonalization with overlap
     ethr =  8.49E-09,  avg # of iterations =  2.0

     total cpu time spent up to now is      279.9 secs

     End of self-consistent calculation

          k = 0.0000 0.0000 0.0000 (  2013 PWs)   bands (ev):

  -274.4961-274.4440-267.2702-267.1790-257.1410-256.9845-255.9384-255.7979
  -201.6303-201.5412-199.8882-198.9757-198.0335-197.9905-186.7772-186.6951
  -186.4148-186.2832-104.5002-101.8697-101.5291-101.5158 -83.7945 -80.5416
   -80.2781 -80.1651 -80.1425 -80.0495 -79.9866 -79.9205 -77.0632 -76.8665
   -76.6438 -76.6010 -44.1843 -43.5222 -43.1968 -42.7542 -41.6034 -41.0933
   -40.8393 -39.7733 -39.6345 -39.4946 -39.0716 -38.1374 -37.7873 -37.3019
   -31.5986 -27.2063 -25.4220 -24.7579 -24.6307 -24.5654 -24.3018 -24.2417
   -24.1721 -23.8381 -23.1669 -22.8697 -22.6729 -22.6262 -22.5675 -22.4614
   -22.3522 -22.0195 -21.9594 -21.3482 -12.2957 -12.2000  -5.4004  -5.1430
    -4.9145  -4.6390  -4.2570  -3.0928   1.2252   1.5725   2.9610   4.9789
     6.9261   8.1856  10.7377  12.7393  13.2052  13.3898  14.6558  14.7942
    17.1428  17.1924  17.3081  17.3983  17.4904  17.7184  31.4549  34.7162
    35.3621  37.9685  38.4517  41.1221  42.1163  42.1917  44.3543  44.9331
    45.8247  46.7055  47.6443  47.8751  48.6368  49.1050  49.5733  50.9640
    52.3025  52.5500  52.8031  53.3507  53.4908  54.3088  54.5883  55.3757
    55.5506  55.9931  56.6361  56.6968  56.9895  57.1995  57.3002  57.4541
    57.4819  57.5718  57.6457  57.7022  58.1386  58.3367  58.6529  58.6915
    59.0021  59.1784  59.4441  59.8157  60.3082  60.5644  60.6216  60.7388
    60.9837  61.3027  61.4163  61.5492  61.7506  61.8967  62.1061  62.3780
    62.5460  62.7179  62.8324  63.0431  63.2284  63.4688  63.5649  63.8879
    64.0864  64.1295  64.4892  64.7776  64.9268  65.0731  65.3421  65.3507
    65.5131  65.5395  65.7215  65.7343  66.0065  66.2023  66.4125  66.6500
    66.7812  67.1568

          k = 0.0000 0.3849 0.0000 (  2028 PWs)   bands (ev):

  -274.5796-274.3699-267.2790-267.1863-257.2660-257.0465-256.0378-255.8027
  -203.1370-201.4107-199.6454-199.0005-198.3318-197.4420-187.4226-187.2590
  -186.6176-186.1896-104.5049-101.8698-101.5292-101.5160 -83.8042 -80.5423
   -80.2806 -80.1698 -80.1447 -80.0532 -79.9861 -79.9240 -77.0677 -76.8691
   -76.6461 -76.6016 -45.3958 -44.3985 -43.5519 -43.2530 -42.5339 -41.6355
   -40.9802 -40.9015 -40.1473 -39.6816 -38.5724 -38.0126 -37.8243 -37.3357
   -31.6264 -27.2046 -25.4317 -24.7337 -24.6071 -24.5111 -24.4573 -24.3114
   -24.2369 -23.8615 -23.1264 -22.9045 -22.7709 -22.6990 -22.5403 -22.4237
   -22.3810 -22.0788 -21.9614 -21.3792 -12.2985 -12.1986  -5.9102  -5.4054
    -5.1372  -4.7003  -4.0163  -2.8789  -1.4975   2.1200   4.0008   4.5638
     7.4749   7.9787  10.4148  11.5959  12.2642  13.3917  13.8851  14.8172
    17.1703  17.2178  17.3603  17.4215  17.4952  17.7161  31.5230  34.6237
    35.4960  37.0414  37.9928  41.0734  42.3137  43.0482  43.9149  44.5253
    45.5612  47.2265  47.6462  48.4663  48.7354  49.0896  50.4606  50.8439
    51.5616  52.2527  52.5908  52.9125  53.5365  53.7145  54.1334  54.5702
    54.9449  55.4999  55.9562  56.3532  56.6998  56.8929  57.2432  57.3261
    57.5962  57.7408  57.9904  58.3614  58.4118  58.5363  58.8731  58.9978
    59.3391  59.5219  59.7349  60.0186  60.2360  60.4648  60.6078  60.7935
    61.0068  61.2504  61.3834  61.5842  61.8587  62.0276  62.1923  62.4061
    62.6030  62.6790  62.8306  63.0031  63.3114  63.3402  63.6255  63.8055
    63.9562  64.1366  64.2185  64.4673  64.7108  64.9490  65.1323  65.2213
    65.4959  65.6607  65.8046  66.0345  66.2345  66.3815  66.4296  66.7763
    66.9700  67.2253

          k = 0.3333 0.5774 0.0000 (  2025 PWs)   bands (ev):

  -274.4342-274.3944-267.2824-267.1914-257.2272-257.0987-256.0438-255.9025
  -202.6351-202.2331-198.6720-198.3255-197.8600-197.5193-187.4127-187.1469
  -186.9243-186.6544-104.5044-101.8698-101.5294-101.5159 -83.7981 -80.5394
   -80.2811 -80.1681 -80.1435 -80.0490 -79.9840 -79.9269 -77.0678 -76.8746
   -76.6485 -76.6059 -45.5914 -45.0951 -44.0694 -43.5359 -41.5058 -41.1113
   -40.3019 -40.1672 -40.1206 -39.0128 -38.9909 -38.3918 -38.2174 -37.3418
   -31.6349 -27.1374 -25.3379 -24.7109 -24.6157 -24.3817 -24.3561 -24.3015
   -24.2881 -23.9087 -23.0534 -22.9134 -22.7125 -22.6644 -22.5136 -22.4592
   -22.3880 -22.1120 -22.0477 -21.4354 -12.2988 -12.1988  -5.4550  -5.0343
    -4.9414  -4.6854  -4.1617  -3.1339   0.3822   0.9829   5.0661   7.0961
     7.1846   8.3008  10.0953  11.5942  12.3089  12.7261  13.8292  14.5575
    17.1739  17.2228  17.3391  17.4150  17.4990  17.7167  31.6054  34.0272
    35.4715  37.3985  38.4211  40.8462  42.2539  43.1377  43.9354  44.1805
    46.2393  47.2213  48.0070  48.5692  48.9209  49.8723  50.5667  50.6184
    51.0271  52.0343  52.3927  53.0861  53.4577  53.5537  54.0267  54.6415
    55.4180  55.6392  55.8909  56.1153  56.4465  56.9290  57.0200  57.2613
    57.3985  57.8393  57.9417  58.2482  58.4811  58.8249  59.1466  59.2385
    59.6402  59.7978  59.9279  60.2947  60.3834  60.5491  60.9229  61.0636
    61.2613  61.3743  61.5540  61.6685  61.7493  62.0474  62.1724  62.2687
    62.3988  62.6737  62.7331  63.0352  63.1647  63.3710  63.4550  63.7194
    63.8330  64.0493  64.2846  64.5032  64.7067  64.8345  65.0626  65.2112
    65.5174  65.6272  65.8970  65.9493  66.1027  66.2679  66.3341  66.4014
    66.8214  67.0017

          k =-0.3333 0.1925 0.0000 (  2028 PWs)   bands (ev):

  -274.5219-274.4287-267.2783-267.1870-257.2428-257.0608-255.9923-255.8563
  -202.3664-202.1497-199.5727-198.6267-198.3356-197.8881-187.2580-186.9086
  -186.7416-186.5849-104.5042-101.8698-101.5294-101.5159 -83.8040 -80.5429
   -80.2815 -80.1682 -80.1440 -80.0511 -79.9874 -79.9241 -77.0641 -76.8652
   -76.6487 -76.6063 -44.8255 -44.1398 -43.7327 -43.6783 -42.9261 -41.2303
   -40.5575 -40.0261 -39.6066 -39.5630 -39.4046 -38.7482 -38.0086 -37.8478
   -31.6121 -27.2032 -25.4137 -24.7297 -24.6630 -24.5264 -24.3661 -24.3305
   -24.2298 -23.8868 -23.1427 -22.8891 -22.7284 -22.6645 -22.5721 -22.4349
   -22.3865 -22.0850 -22.0249 -21.3878 -12.2987 -12.1986  -5.8903  -5.1085
    -4.9051  -4.8333  -4.3142  -3.3746   0.2499   0.7012   3.6670   6.0802
     6.7491   7.7558  10.1821  11.5870  12.8677  13.0879  14.0575  14.7631
    17.1709  17.2243  17.3451  17.4185  17.4961  17.7162  31.5539  33.8423
    35.7129  37.6163  38.6141  40.8981  41.7052  42.8454  43.8783  44.1142
    45.8781  47.1232  48.0999  48.5754  48.7855  49.4505  50.6344  50.9957
    51.5654  51.9544  52.4863  52.9295  53.4945  53.7552  54.1803  54.5561
    55.2771  55.5447  55.9221  56.1445  56.5656  56.8832  57.0780  57.3707
    57.5287  57.6737  58.1278  58.4543  58.6828  58.8088  59.2141  59.3233
    59.4848  59.7313  59.8370  59.9776  60.0576  60.2620  60.3865  60.9360
    61.1328  61.3091  61.4661  61.6038  61.7549  61.9572  62.0306  62.1776
    62.4034  62.5832  62.7566  62.8728  63.0411  63.3069  63.3647  63.6174
    63.8700  64.0522  64.1953  64.4625  64.6888  64.8715  65.0963  65.2016
    65.4915  65.7657  65.8497  65.8942  66.1422  66.4037  66.4752  66.7271
    66.9274  67.1879

          k = 0.3333 0.1925 0.0000 (  2028 PWs)   bands (ev):

  -274.5202-274.4285-267.2786-267.1873-257.1631-257.0243-256.0573-255.9029
  -202.3299-202.1157-199.7749-198.6630-198.3144-197.7185-187.1718-187.0072
  -186.7179-186.6123-104.5044-101.8698-101.5294-101.5160 -83.8036 -80.5423
   -80.2795 -80.1675 -80.1437 -80.0509 -79.9877 -79.9186 -77.0679 -76.8731
   -76.6490 -76.6065 -45.1187 -44.4319 -43.8859 -43.5333 -41.5585 -41.0689
   -40.4592 -40.4404 -39.7972 -39.7840 -39.1154 -39.0627 -38.3122 -37.4649
   -31.5946 -27.2151 -25.3913 -24.7594 -24.6296 -24.5383 -24.3382 -24.3104
   -24.2204 -23.8777 -23.1136 -22.9147 -22.6898 -22.6562 -22.5598 -22.4525
   -22.4432 -22.1076 -22.0468 -21.4098 -12.2959 -12.2003  -5.8324  -5.1201
    -5.0629  -4.7046  -4.3111  -3.3780   0.2838   0.6890   3.5012   6.1601
     6.6926   7.7743  10.2110  12.1218  12.1595  13.1840  14.4686  14.7194
    17.1474  17.1925  17.3010  17.3972  17.4923  17.7190  31.5721  34.0755
    35.2755  37.2895  38.3722  40.7991  42.2231  42.5771  44.6956  45.0213
    46.3299  46.9885  47.6510  48.0563  48.5686  49.7829  50.3479  50.6289
    51.7035  52.2012  52.8938  53.5359  53.8083  54.1768  54.6171  55.0585
    55.3101  55.7691  55.9304  56.5271  56.6697  56.7614  57.0409  57.1389
    57.5836  57.7234  58.0498  58.2048  58.5603  58.7309  58.7998  59.0950
    59.2658  59.5774  59.8184  59.9776  60.0925  60.3986  60.7038  60.8329
    61.0496  61.2457  61.3896  61.5399  61.7756  61.9983  62.1338  62.2979
    62.4327  62.6388  62.7037  63.0889  63.2646  63.5670  63.6792  63.9782
    64.0258  64.2060  64.3260  64.4499  64.5504  64.7812  64.8705  64.9533
    65.0792  65.3456  65.4790  65.6687  65.8553  65.8863  66.2657  66.4888
    66.6201  66.7680

     the Fermi energy is    61.6042 ev

!    total energy              =   14701.07699885 Ry
     Harris-Foulkes estimate   =   14701.07699220 Ry
     estimated scf accuracy    <       0.00000703 Ry

     The total energy is the sum of the following terms:

     one-electron contribution =   -3842.34963038 Ry
     hartree contribution      =    1988.29857500 Ry
     xc contribution           =    -495.51814528 Ry
     ewald contribution        =   17050.64607348 Ry
     smearing contrib. (-TS)   =       0.00012603 Ry

     convergence has been achieved in  18 iterations

     Forces acting on atoms (cartesian axes, Ry/au):

     atom    1 type  1   force =  6903.89808636 3986.37726438    0.00369619
     atom    2 type  1   force =  4338.26925951 7512.77056066   15.97929230
     atom    3 type  1   force = -3959.27459910 6858.03537436    0.00185030
     atom    4 type  1   force =  8675.48624776    0.05131977    0.02480729
     atom    5 type  1   force =     0.08685988   -0.14127299    0.03826876
     atom    6 type  1   force = -8675.87805584   -0.02181981    0.01715040
     atom    7 type  1   force =  3959.28704750-6857.56050865    0.02581211
     atom    8 type  1   force = -4338.22542739-7512.71312010   15.75135953
     atom    9 type  1   force = -6903.97808315-3985.74755122    0.03269160
     atom   10 type  1   force =  6904.04546021 3985.70060596    0.02626354
     atom   11 type  1   force =  4338.23672038 7513.23422768   -0.35344875
     atom   12 type  1   force = -3959.34770463 6857.63898962    0.00928279
     atom   13 type  1   force =  8675.61993810    0.27773802   -0.22305415
     atom   14 type  1   force =     0.06378484    0.25336428   -0.23036829
     atom   15 type  1   force = -8675.76337666    0.06609415   -0.27969403
     atom   16 type  1   force =  3959.46425068-6858.06647518   -0.02897026
     atom   17 type  1   force = -4338.00366056-7513.73305984   -0.33688709
     atom   18 type  1   force = -6904.11302239-3986.42028972   -0.04385638
     atom   19 type  2   force =     0.13898083   -0.01181330  -25.27272095
     atom   20 type  3   force =    -0.03452612   -7.28942503   -2.53550612
     atom   21 type  3   force =     0.02181979    7.29979696   -2.60596880

     Total force = 33274.299425     Total SCF correction =     0.018243

     number of scf cycles    =   3
     number of bfgs steps    =   1

     energy   old            = ****************** Ry
     energy   new            =   14701.0769988511 Ry

     CASE: energy  _new > energy  _old

     new trust radius        =       0.1251029663 bohr
     new conv_thr            =       0.0000100000 Ry


ATOMIC_POSITIONS (angstrom)
Ru       0.057332310   1.595352894   0.000000000
Ru       2.721926415   1.590010723   0.000000000
Ru       5.379746994   1.617769356   0.000000000
Ru       1.385003006   3.905630230   0.000000000
Ru       4.058850000   3.905630230   0.000000000
Ru       6.732696994   3.905630230   0.000000000
Ru       2.737953006   6.193491104   0.000000000
Ru       5.395773585   6.221249737   0.000000000
Ru       8.060367690   6.215907566   0.000000000
Ru       0.057332310   0.033100804   2.140750000
Ru       2.721926415   0.027758633   2.140750000
Ru       5.379746994   0.055517266   2.140750000
Ru       1.385003006   2.343378140   2.140750000
Ru       4.058850000   2.343378140   2.140750000
Ru       6.732696994   2.343378140   2.140750000
Ru       2.737953006   4.631239014   2.140750000
Ru       5.395773585   4.658997647   2.140750000
Ru       8.060367690   4.653655476   2.140750000
N        2.705900000   1.562252090   3.340750000
H        2.705900000   0.755810090   3.978353000
H        2.705900000   2.368694090   3.978353000



     Writing output data file Ruthenium4x3x2-NH2_RPBE.save
     NEW-OLD atomic charge density approx. for the potential

     Check: negative/imaginary core charge=   -0.000113    0.000000

     total cpu time spent up to now is      280.6 secs

     per-process dynamical memory:    32.4 Mb

     Self-consistent Calculation

     iteration #  1     ecut=    30.00 Ry     beta=0.70
     Davidson diagonalization with overlap
     ethr =  1.00E-06,  avg # of iterations = 12.4

     total cpu time spent up to now is      292.9 secs

     total energy              =   38893.72419335 Ry
     Harris-Foulkes estimate   =   38890.88388799 Ry
     estimated scf accuracy    <       3.31752601 Ry

     iteration #  2     ecut=    30.00 Ry     beta=0.70
     Davidson diagonalization with overlap
     ethr =  1.12E-03,  avg # of iterations =  4.0

     total cpu time spent up to now is      299.4 secs

     total energy              =   38901.29988758 Ry
     Harris-Foulkes estimate   =   38875.47125478 Ry
     estimated scf accuracy    <     177.59457741 Ry

     iteration #  3     ecut=    30.00 Ry     beta=0.70
     Davidson diagonalization with overlap
     ethr =  1.12E-03,  avg # of iterations =  5.4

     total cpu time spent up to now is      306.4 secs

     total energy              =   38891.69531207 Ry
     Harris-Foulkes estimate   =   38891.22264438 Ry
     estimated scf accuracy    <       1.13843300 Ry

     iteration #  4     ecut=    30.00 Ry     beta=0.70
     Davidson diagonalization with overlap
     ethr =  3.86E-04,  avg # of iterations =  4.6

     total cpu time spent up to now is      311.8 secs

     total energy              =   38891.75665936 Ry
     Harris-Foulkes estimate   =   38891.02153618 Ry
     estimated scf accuracy    <       4.87318961 Ry

     iteration #  5     ecut=    30.00 Ry     beta=0.70
     Davidson diagonalization with overlap
     ethr =  3.86E-04,  avg # of iterations =  4.4

     total cpu time spent up to now is      316.7 secs

     total energy              =   38891.48649857 Ry
     Harris-Foulkes estimate   =   38891.30052605 Ry
     estimated scf accuracy    <       1.06322288 Ry

     iteration #  6     ecut=    30.00 Ry     beta=0.70
     Davidson diagonalization with overlap
     ethr =  3.60E-04,  avg # of iterations =  2.2

     total cpu time spent up to now is      320.1 secs

     total energy              =   38891.42175518 Ry
     Harris-Foulkes estimate   =   38891.33102566 Ry
     estimated scf accuracy    <       0.54611705 Ry

     iteration #  7     ecut=    30.00 Ry     beta=0.70
     Davidson diagonalization with overlap
     ethr =  1.85E-04,  avg # of iterations =  2.0

     total cpu time spent up to now is      323.5 secs

     total energy              =   38891.38797814 Ry
     Harris-Foulkes estimate   =   38891.36179540 Ry
     estimated scf accuracy    <       0.12090602 Ry

     iteration #  8     ecut=    30.00 Ry     beta=0.70
     Davidson diagonalization with overlap
     ethr =  4.10E-05,  avg # of iterations =  2.0

     total cpu time spent up to now is      327.0 secs

     total energy              =   38891.37625317 Ry
     Harris-Foulkes estimate   =   38891.36789556 Ry
     estimated scf accuracy    <       0.03572659 Ry

     iteration #  9     ecut=    30.00 Ry     beta=0.70
     Davidson diagonalization with overlap
     ethr =  1.21E-05,  avg # of iterations =  2.4

     total cpu time spent up to now is      330.7 secs

     total energy              =   38891.37319375 Ry
     Harris-Foulkes estimate   =   38891.37118812 Ry
     estimated scf accuracy    <       0.00785324 Ry

     iteration # 10     ecut=    30.00 Ry     beta=0.70
     Davidson diagonalization with overlap
     ethr =  2.66E-06,  avg # of iterations =  5.2

     total cpu time spent up to now is      335.6 secs

     total energy              =   38891.37237588 Ry
     Harris-Foulkes estimate   =   38891.37163975 Ry
     estimated scf accuracy    <       0.00312902 Ry

     iteration # 11     ecut=    30.00 Ry     beta=0.70
     Davidson diagonalization with overlap
     ethr =  1.06E-06,  avg # of iterations =  2.0

     total cpu time spent up to now is      339.2 secs

     total energy              =   38891.37209572 Ry
     Harris-Foulkes estimate   =   38891.37188009 Ry
     estimated scf accuracy    <       0.00067219 Ry

     iteration # 12     ecut=    30.00 Ry     beta=0.70
     Davidson diagonalization with overlap
     ethr =  2.28E-07,  avg # of iterations =  3.4

     total cpu time spent up to now is      343.7 secs

     total energy              =   38891.37217177 Ry
     Harris-Foulkes estimate   =   38891.37176778 Ry
     estimated scf accuracy    <       0.00221389 Ry

     iteration # 13     ecut=    30.00 Ry     beta=0.70
     Davidson diagonalization with overlap
     ethr =  2.28E-07,  avg # of iterations =  3.0

     total cpu time spent up to now is      347.8 secs

     total energy              =   38891.37197954 Ry
     Harris-Foulkes estimate   =   38891.37195116 Ry
     estimated scf accuracy    <       0.00012889 Ry

     iteration # 14     ecut=    30.00 Ry     beta=0.70
     Davidson diagonalization with overlap
     ethr =  4.37E-08,  avg # of iterations =  2.4

     total cpu time spent up to now is      351.5 secs

     total energy              =   38891.37197593 Ry
     Harris-Foulkes estimate   =   38891.37195147 Ry
     estimated scf accuracy    <       0.00009896 Ry

     iteration # 15     ecut=    30.00 Ry     beta=0.70
     Davidson diagonalization with overlap
     ethr =  3.35E-08,  avg # of iterations =  2.0

     total cpu time spent up to now is      355.0 secs

     total energy              =   38891.37197548 Ry
     Harris-Foulkes estimate   =   38891.37195050 Ry
     estimated scf accuracy    <       0.00017017 Ry

     iteration # 16     ecut=    30.00 Ry     beta=0.70
     Davidson diagonalization with overlap
     ethr =  3.35E-08,  avg # of iterations =  2.0

     total cpu time spent up to now is      358.4 secs

     total energy              =   38891.37196489 Ry
     Harris-Foulkes estimate   =   38891.37195863 Ry
     estimated scf accuracy    <       0.00004005 Ry

     iteration # 17     ecut=    30.00 Ry     beta=0.70
     Davidson diagonalization with overlap
     ethr =  1.36E-08,  avg # of iterations =  2.0

     total cpu time spent up to now is      361.7 secs

     total energy              =   38891.37196288 Ry
     Harris-Foulkes estimate   =   38891.37196043 Ry
     estimated scf accuracy    <       0.00001189 Ry

     iteration # 18     ecut=    30.00 Ry     beta=0.70
     Davidson diagonalization with overlap
     ethr =  4.03E-09,  avg # of iterations =  2.0

     total cpu time spent up to now is      365.2 secs

     End of self-consistent calculation

          k = 0.0000 0.0000 0.0000 (  2013 PWs)   bands (ev):

  -283.6448-283.5547-279.0594-278.9524-278.5954-278.4911-273.1622-273.0793
  -228.8969-227.9603-227.1587-227.0171-226.8550-226.4142-223.2586-223.1115
  -222.7238-222.5902-104.4687-102.1443-101.8287-101.7921 -84.1689 -81.3353
   -81.1471 -81.0642 -80.9772 -80.9146 -80.8375 -80.8311 -80.2119 -79.8087
   -79.7864 -78.8688 -45.2435 -44.6405 -43.9604 -43.5284 -43.3941 -43.3154
   -43.0674 -42.8846 -42.7840 -42.6268 -42.1444 -40.6816 -40.0291 -38.6218
   -33.1721 -28.8437 -27.1926 -26.4288 -26.3038 -26.1703 -26.0078 -25.9423
   -25.8613 -25.8189 -25.7119 -25.5900 -25.4369 -25.3671 -25.2829 -25.2340
   -25.2173 -25.0389 -25.0009 -23.8280 -12.1378 -12.1260 -12.0055  -9.1612
    -6.8733  -6.6710  -6.2592  -5.6493  -4.7820  -4.6457  -4.2254  -3.9826
    -0.9757  -0.4865  -0.1975  -0.0480   0.0371   0.6356  17.3062  17.3425
    17.4609  17.5770  17.6772  17.8970  19.9690  22.5878  28.6721  32.1304
    32.5333  35.2726  37.8960  40.9794  42.5011  42.6683  44.6710  45.2181
    46.2631  47.0820  48.0176  48.5147  48.9284  49.5067  50.2128  50.9384
    52.0713  52.2014  52.8052  53.0705  53.6270  54.3619  54.8595  55.2406
    55.8390  56.3004  56.5579  56.6975  57.0759  57.2082  57.2789  57.5026
    57.6101  57.8115  57.8979  58.1921  58.6165  58.7416  58.8258  59.0985
    59.2082  59.4088  59.7261  60.1288  60.5048  60.6403  60.7589  60.9697
    61.2164  61.4833  61.6016  61.9379  62.0271  62.2253  62.2784  62.5595
    62.5880  62.8012  63.1982  63.2068  63.3988  63.5650  63.6450  63.8338
    63.9799  64.2291  64.3627  64.6754  64.7462  65.0039  65.1327  65.2398
    65.2713  65.3824  65.6256  65.7915  65.9247  66.0602  66.4057  66.5583
    66.8585  67.0555

          k = 0.0000 0.3849 0.0000 (  2028 PWs)   bands (ev):

  -283.6983-283.5189-279.1264-278.9849-278.6536-278.4888-273.1674-273.0835
  -229.1355-228.8698-227.7936-226.9555-226.7434-226.0724-224.3400-224.0184
  -222.9859-222.3869-104.4732-102.1444-101.8288-101.7922 -84.1781 -81.3364
   -81.1524 -81.0667 -80.9808 -80.9176 -80.8427 -80.8286 -80.2143 -79.8112
   -79.7865 -78.8692 -46.2558 -44.9894 -44.7388 -44.5576 -44.0021 -43.8922
   -43.8262 -43.6184 -43.1116 -42.7530 -41.1878 -40.6915 -40.4701 -39.1187
   -33.2089 -28.8182 -27.2082 -26.3693 -26.2717 -26.1394 -26.0960 -25.9459
   -25.8912 -25.8356 -25.7800 -25.6115 -25.4792 -25.4266 -25.3856 -25.2351
   -25.1356 -25.1017 -24.9693 -23.8616 -12.1285 -12.0046 -10.5838 -10.0939
    -9.6675  -6.9330  -6.3509  -6.3365  -5.7171  -5.5585  -4.9452  -3.5985
    -1.3157  -0.8916  -0.2215  -0.0627   0.1953   0.6999  17.1989  17.3376
    17.4021  17.5624  17.6806  17.8970  19.8845  21.3802  29.0945  31.1583
    32.2424  35.2588  37.8440  41.0254  42.4448  43.2531  44.2578  44.4966
    46.2062  47.9382  48.1377  48.6599  49.0985  49.4984  50.6147  51.0218
    51.5544  52.3647  52.5782  53.1305  53.7521  53.9334  54.2096  54.4957
    55.1164  55.7971  56.2589  56.6406  56.8220  57.0380  57.1848  57.4771
    57.7806  57.9437  58.1206  58.4741  58.5893  58.8171  59.1631  59.4294
    59.5002  59.7405  60.0365  60.2003  60.4700  60.6384  60.8460  60.9204
    61.1148  61.4427  61.4865  61.6428  61.8786  62.1958  62.3495  62.4792
    62.5833  62.8564  62.9856  63.0697  63.3780  63.4025  63.6654  63.8388
    63.9890  64.0910  64.2305  64.3806  64.6478  64.7516  64.8969  65.0542
    65.1343  65.2122  65.6361  65.8260  66.0220  66.2818  66.4060  66.7536
    66.9893  67.1965

          k = 0.3333 0.5774 0.0000 (  2025 PWs)   bands (ev):

  -283.6179-283.5279-279.0943-279.0113-278.6470-278.5419-273.1682-273.0853
  -228.5385-228.0027-227.1302-226.7001-226.6019-226.2025-224.3119-223.8408
  -223.5592-223.0987-104.4725-102.1444-101.8288-101.7922 -84.1725 -81.3340
   -81.1531 -81.0669 -80.9797 -80.9141 -80.8387 -80.8291 -80.2152 -79.8120
   -79.7899 -78.8755 -46.2143 -45.9208 -44.7399 -44.5133 -43.9532 -43.4107
   -43.0432 -42.8803 -42.4645 -42.0376 -41.5043 -41.2971 -40.4717 -39.1887
   -33.2136 -28.7605 -27.0914 -26.3496 -26.2593 -26.0470 -25.9773 -25.9262
   -25.8918 -25.8669 -25.7107 -25.6143 -25.4928 -25.4022 -25.3274 -25.2245
   -25.1584 -25.1375 -25.1150 -23.9187 -12.1276 -12.0045  -9.0113  -8.5639
    -8.0490  -7.0738  -6.6787  -6.1161  -5.9127  -5.5054  -5.4337  -4.6413
    -0.8885  -0.8697  -0.3333  -0.0537   0.1108   0.6879  17.1848  17.3390
    17.4035  17.5645  17.6837  17.8977  20.0558  22.1850  28.2167  31.7869
    32.2298  35.3654  38.0087  40.9321  42.3143  43.1806  44.2635  44.6600
    46.6537  47.6513  48.0086  48.8220  49.1165  49.9287  50.6339  50.9643
    51.3095  52.2376  52.7018  53.1842  53.6323  53.9323  54.2262  54.7574
    55.5348  55.8430  55.9603  56.2968  56.6841  56.9908  57.1955  57.5795
    57.7329  57.8460  58.1450  58.4391  58.6670  59.0286  59.2972  59.4289
    59.7024  60.0227  60.0940  60.3966  60.4566  60.7279  61.1408  61.2569
    61.3493  61.5557  61.7553  61.9021  62.0154  62.0591  62.1687  62.2445
    62.4870  62.6453  62.7670  63.0852  63.3995  63.4584  63.5608  63.8243
    64.0093  64.1995  64.3879  64.6791  64.7346  64.9857  65.1382  65.1961
    65.3948  65.4612  65.7536  65.9200  65.9672  66.1107  66.2704  66.4543
    66.5669  66.8051

          k =-0.3333 0.1925 0.0000 (  2028 PWs)   bands (ev):

  -283.6600-283.5591-279.1116-278.9920-278.6264-278.5237-273.1669-273.0838
  -228.4972-228.2046-227.8611-227.5342-226.7892-226.6564-223.9538-223.5227
  -223.1288-223.1079-104.4725-102.1444-101.8289-101.7922 -84.1776 -81.3368
   -81.1486 -81.0673 -80.9798 -80.9161 -80.8394 -80.8322 -80.2129 -79.8119
   -79.7899 -78.8704 -45.6077 -45.2855 -45.2236 -44.5914 -44.0158 -43.6315
   -43.2237 -42.9566 -42.5467 -42.4107 -42.3280 -41.1938 -40.3277 -40.0709
   -33.1744 -28.8418 -27.1684 -26.3946 -26.3121 -26.1396 -26.0060 -25.9907
   -25.9097 -25.8289 -25.7569 -25.6234 -25.4738 -25.3946 -25.3210 -25.2860
   -25.1832 -25.0948 -25.0349 -23.8706 -12.1274 -12.0040 -11.1911  -8.6763
    -8.0223  -7.9782  -6.9098  -6.1053  -6.0454  -5.2124  -4.8281  -4.4079
    -1.0149  -0.8336  -0.3500  -0.0067   0.0990   0.5012  17.1816  17.3357
    17.4028  17.5646  17.6821  17.8972  19.7743  22.1089  27.9247  31.8968
    32.1267  35.2701  37.9898  40.9924  42.1608  43.1598  44.1958  44.5018
    46.6275  47.6480  48.1393  48.6911  48.9412  49.8628  50.7877  51.1452
    51.5929  52.0292  52.8709  53.2464  53.4028  53.8438  54.5051  54.8256
    55.5444  55.7895  55.8800  56.1384  56.5912  57.1456  57.3200  57.4966
    57.5578  58.0457  58.3263  58.6296  58.8216  59.0620  59.2915  59.4592
    59.6047  59.8601  59.9959  60.2342  60.2898  60.5995  60.7306  60.9766
    61.2779  61.4423  61.5664  61.7449  61.8857  61.9361  62.1385  62.2275
    62.3865  62.6545  62.8612  63.0056  63.2125  63.4626  63.6086  63.7754
    63.8885  64.0785  64.4208  64.5303  64.6001  64.6871  64.9563  65.0663
    65.2102  65.3775  65.4973  65.5767  65.9713  66.2661  66.3111  66.6955
    67.0611  67.2274

          k = 0.3333 0.1925 0.0000 (  2028 PWs)   bands (ev):

  -283.6596-283.5591-279.0675-278.9774-278.6596-278.5474-273.1672-273.0841
  -228.6454-228.1431-227.8092-227.3842-227.0290-226.4339-223.9691-223.5284
  -223.1374-223.1135-104.4726-102.1444-101.8289-101.7922 -84.1774 -81.3363
   -81.1465 -81.0652 -80.9786 -80.9159 -80.8387 -80.8322 -80.2157 -79.8130
   -79.7909 -78.8735 -45.6651 -45.3169 -45.1460 -44.5393 -44.0263 -43.5909
   -43.0507 -43.0051 -42.5316 -42.5038 -42.2738 -41.2392 -40.2252 -40.1115
   -33.1692 -28.8432 -27.1567 -26.4131 -26.2660 -26.1784 -25.9937 -25.9576
   -25.8755 -25.7963 -25.7611 -25.5966 -25.4818 -25.3688 -25.3157 -25.2605
   -25.2086 -25.1810 -25.1390 -23.8898 -12.1268 -12.0066 -11.2566  -8.5507
    -7.9246  -7.8493  -7.1002  -6.0658  -5.9705  -5.1269  -4.7564  -4.4403
    -1.0111  -0.8375  -0.3728  -0.0265   0.1498   0.5051  17.3011  17.3438
    17.4594  17.5773  17.6790  17.8961  19.6426  22.1078  27.9542  31.7624
    32.1972  35.2374  37.9836  40.8031  42.4531  42.7318  44.9269  45.2642
    46.5676  47.2820  47.8891  48.3106  48.8705  49.6935  50.4124  51.1825
    51.8171  52.3809  53.0126  53.3404  53.8341  54.0855  54.7171  55.0731
    55.6194  55.8514  56.0503  56.2822  56.7645  56.9739  57.1484  57.3309
    57.7804  57.9149  58.2201  58.4039  58.7353  58.9616  59.1357  59.3336
    59.6102  59.7824  59.9531  60.2076  60.3503  60.5854  60.6899  60.9713
    61.2560  61.4196  61.6910  61.8569  61.9492  62.1580  62.2765  62.5400
    62.7257  62.9952  63.0731  63.2446  63.4040  63.6392  63.8101  64.0074
    64.1561  64.3100  64.4791  64.6078  64.7205  64.8938  64.9432  65.0855
    65.2562  65.3872  65.4233  65.6256  65.7642  65.9149  66.1175  66.2976
    66.4225  66.5115

     the Fermi energy is    61.8072 ev

!    total energy              =   38891.37196602 Ry
     Harris-Foulkes estimate   =   38891.37196083 Ry
     estimated scf accuracy    <       0.00000546 Ry

     The total energy is the sum of the following terms:

     one-electron contribution =   -3981.89573784 Ry
     hartree contribution      =    2013.17277351 Ry
     xc contribution           =    -497.51420218 Ry
     ewald contribution        =   41357.60945428 Ry
     smearing contrib. (-TS)   =      -0.00032175 Ry

     convergence has been achieved in  18 iterations

     Forces acting on atoms (cartesian axes, Ry/au):

     atom    1 type  1   force = 27962.8116276416144.67042507    0.00861893
     atom    2 type  1   force = 17380.9875384930104.10437370   16.10918537
     atom    3 type  1   force = **************27768.14081519    0.00726549
     atom    4 type  1   force = 34761.20689094    0.07406194    0.03398353
     atom    5 type  1   force =     0.04603900   -0.17463221    0.04048175
     atom    6 type  1   force = **************   -0.06700709    0.01777708
     atom    7 type  1   force = 16031.78982572**************    0.00865463
     atom    8 type  1   force = ****************************   15.98074099
     atom    9 type  1   force = ****************************    0.01514369
     atom   10 type  1   force = 27962.8366893516144.09739119    0.00850978
     atom   11 type  1   force = 17381.0285361030104.19200945   -0.37244462
     atom   12 type  1   force = **************27767.62938938    0.00045407
     atom   13 type  1   force = 34761.29419690    0.26384818   -0.25104227
     atom   14 type  1   force =     0.10303275    0.28268140   -0.25415705
     atom   15 type  1   force = **************    0.08545006   -0.26970350
     atom   16 type  1   force = 16031.79697934**************   -0.01630132
     atom   17 type  1   force = ****************************   -0.34506613
     atom   18 type  1   force = ****************************   -0.02716802
     atom   19 type  2   force =     0.12777355   -0.04808457  -25.65698814
     atom   20 type  3   force =    -0.06184246   -7.25193150   -2.48152273
     atom   21 type  3   force =     0.05153259    7.25331936   -2.55642153

     Total force = ************     Total SCF correction =     0.014963

     number of scf cycles    =   4
     number of bfgs steps    =   1

     energy   old            = ****************** Ry
     energy   new            =   38891.3719660227 Ry

     CASE: energy  _new > energy  _old

     new trust radius        =       0.0626201264 bohr
     new conv_thr            =       0.0000100000 Ry


ATOMIC_POSITIONS (angstrom)
Ru       0.028697613   1.578820654   0.000000000
Ru       2.713922001   1.576146637   0.000000000
Ru       5.395755910   1.590041185   0.000000000
Ru       1.368994090   3.905630230   0.000000000
Ru       4.058850000   3.905630230   0.000000000
Ru       6.748705910   3.905630230   0.000000000
Ru       2.721944090   6.221219275   0.000000000
Ru       5.403777999   6.235113823   0.000000000
Ru       8.089002387   6.232439806   0.000000000
Ru       0.028697613   0.016568564   2.140750000
Ru       2.713922001   0.013894547   2.140750000
Ru       5.395755910   0.027789095   2.140750000
Ru       1.368994090   2.343378140   2.140750000
Ru       4.058850000   2.343378140   2.140750000
Ru       6.748705910   2.343378140   2.140750000
Ru       2.721944090   4.658967185   2.140750000
Ru       5.403777999   4.672861733   2.140750000
Ru       8.089002387   4.670187716   2.140750000
N        2.705900000   1.562252090   3.340750000
H        2.705900000   0.755810090   3.978353000
H        2.705900000   2.368694090   3.978353000



     Writing output data file Ruthenium4x3x2-NH2_RPBE.save
     NEW-OLD atomic charge density approx. for the potential

     Check: negative/imaginary core charge=   -0.000113    0.000000

     total cpu time spent up to now is      365.9 secs

     per-process dynamical memory:    32.4 Mb

     Self-consistent Calculation

     iteration #  1     ecut=    30.00 Ry     beta=0.70
     Davidson diagonalization with overlap
