
     Program PWSCF v.6.1 (svn rev. 13369) starts on 12Apr2021 at 17:35:10 

     This program is part of the open-source Quantum ESPRESSO suite
     for quantum simulation of materials; please cite
         "P. Giannozzi et al., J. Phys.:Condens. Matter 21 395502 (2009);
          URL http://www.quantum-espresso.org", 
     in publications or presentations arising from this work. More details at
     http://www.quantum-espresso.org/quote

     Parallel version (MPI), running on     1 processors
     Waiting for input...
     Reading input from standard input

     Current dimensions of program PWSCF are:
     Max number of different atomic species (ntypx) = 10
     Max number of k-points (npk) =  40000
     Max angular momentum in pseudopotentials (lmaxx) =  3

     IMPORTANT: XC functional enforced from input :
     Exchange-correlation      = REVPBE ( 1  4  4  4 0 0)
     Any further DFT definition will be discarded
     Please, verify this is what you really want


     gamma-point specific algorithms are used

     Subspace diagonalization in iterative solution of the eigenvalue problem:
     a serial algorithm will be used

 
     G-vector sticks info
     --------------------
     sticks:   dense  smooth     PW     G-vecs:    dense   smooth      PW
     Sum         859     859    211                16247    16247    2013
 


     bravais-lattice index     =            4
     lattice parameter (alat)  =      10.2270  a.u.
     unit-cell volume          =     732.8730 (a.u.)^3
     number of atoms/cell      =           21
     number of atomic types    =            3
     number of electrons       =       295.00
     number of Kohn-Sham states=          178
     kinetic-energy cutoff     =      30.0000  Ry
     charge density cutoff     =     120.0000  Ry
     convergence threshold     =      1.0E-05
     mixing beta               =       0.7000
     number of iterations used =            8  plain     mixing
     Exchange-correlation      = REVPBE ( 1  4  4  4 0 0)
     nstep                     =           50


     celldm(1)=  10.227000  celldm(2)=   1.000000  celldm(3)=   0.791140
     celldm(4)=   0.000000  celldm(5)=   0.000000  celldm(6)=   0.000000

     crystal axes: (cart. coord. in units of alat)
               a(1) = (   1.000000   0.000000   0.000000 )  
               a(2) = (  -0.500000   0.866025   0.000000 )  
               a(3) = (   0.000000   0.000000   0.791140 )  

     reciprocal axes: (cart. coord. in units 2 pi/alat)
               b(1) = (  1.000000  0.577350  0.000000 )  
               b(2) = (  0.000000  1.154701  0.000000 )  
               b(3) = (  0.000000  0.000000  1.263999 )  


     PseudoPot. # 1 for Ru read from file:
     /home/ajs0201/workQE/pseudo/Ru_ONCV_PBE-1.0.oncvpsp.upf
     MD5 check sum: be037bb81c227cfb9b1461a9f099f4bd
     Pseudo is Norm-conserving, Zval = 16.0
     Generated using ONCVPSP code by D. R. Hamann
     Using radial grid of 1458 points,  6 beta functions with: 
                l(1) =   0
                l(2) =   0
                l(3) =   1
                l(4) =   1
                l(5) =   2
                l(6) =   2

     PseudoPot. # 2 for N  read from file:
     /home/ajs0201/workQE/pseudo/N.oncvpsp.upf
     MD5 check sum: 563d65bfb082928f0c9eb97172f6c357
     Pseudo is Norm-conserving + core correction, Zval =  5.0
     Generated using ONCVPSP code by D. R. Hamann
     Using radial grid of 1058 points,  4 beta functions with: 
                l(1) =   0
                l(2) =   0
                l(3) =   1
                l(4) =   1

     PseudoPot. # 3 for H  read from file:
     /home/ajs0201/workQE/pseudo/H_ONCV_PBE-1.0.oncvpsp.upf
     MD5 check sum: 1790becc920ee074925cf490c71280fe
     Pseudo is Norm-conserving, Zval =  1.0
     Generated using ONCVPSP code by D. R. Hamann
     Using radial grid of 1166 points,  2 beta functions with: 
                l(1) =   0
                l(2) =   0

     atomic species   valence    mass     pseudopotential
        Ru            16.00   101.07000     Ru( 1.00)
        N              5.00    14.00670     N ( 1.00)
        H              1.00     1.00794     H ( 1.00)

     No symmetry found



   Cartesian axes

     site n.     atom                  positions (alat units)
         1           Ru  tau(   1) = (   0.0000000   0.2886700   0.0000000  )
         2           Ru  tau(   2) = (   0.4999912   0.2886700   0.0000000  )
         3           Ru  tau(   3) = (   0.9999824   0.2886700   0.0000000  )
         4           Ru  tau(   4) = (   0.2499956   0.7216751   0.0000000  )
         5           Ru  tau(   5) = (   0.7499868   0.7216751   0.0000000  )
         6           Ru  tau(   6) = (   1.2499780   0.7216751   0.0000000  )
         7           Ru  tau(   7) = (   0.4999912   1.1546802   0.0000000  )
         8           Ru  tau(   8) = (   0.9999824   1.1546802   0.0000000  )
         9           Ru  tau(   9) = (   1.4999736   1.1546802   0.0000000  )
        10           Ru  tau(  10) = (   0.0000000   0.0000000   0.3955638  )
        11           Ru  tau(  11) = (   0.4999912   0.0000000   0.3955638  )
        12           Ru  tau(  12) = (   0.9999824   0.0000000   0.3955638  )
        13           Ru  tau(  13) = (   0.2499956   0.4330051   0.3955638  )
        14           Ru  tau(  14) = (   0.7499868   0.4330051   0.3955638  )
        15           Ru  tau(  15) = (   1.2499780   0.4330051   0.3955638  )
        16           Ru  tau(  16) = (   0.4999912   0.8660102   0.3955638  )
        17           Ru  tau(  17) = (   0.9999824   0.8660102   0.3955638  )
        18           Ru  tau(  18) = (   1.4999736   0.8660102   0.3955638  )
        19           N   tau(  19) = (   0.4999912   0.2886700   0.6172976  )
        20           H   tau(  20) = (   0.4999912   0.1396572   0.7351127  )
        21           H   tau(  21) = (   0.4999912   0.4376829   0.7351127  )

     number of k points=     1  Marzari-Vanderbilt smearing, width (Ry)=  0.0100
                       cart. coord. in units 2pi/alat
        k(    1) = (   0.0000000   0.0000000   0.0000000), wk =   2.0000000

     Dense  grid:     8124 G-vectors     FFT dimensions: (  36,  36,  30)

     Estimated max dynamical RAM per process >      33.39MB

     Check: negative/imaginary core charge=   -0.000113    0.000000

     Initial potential from superposition of free atoms

     starting charge  294.99003, renormalised to  295.00000
     Starting wfc are  186 randomized atomic wfcs

     total cpu time spent up to now is        0.4 secs

     per-process dynamical memory:    21.5 Mb

     Self-consistent Calculation

     iteration #  1     ecut=    30.00 Ry     beta=0.70
     Davidson diagonalization with overlap
     ethr =  1.00E-02,  avg # of iterations =  7.0

     total cpu time spent up to now is        1.4 secs

     total energy              =43069643.70054458 Ry
     Harris-Foulkes estimate   =43069504.23027673 Ry
     estimated scf accuracy    <     162.94433220 Ry

     iteration #  2     ecut=    30.00 Ry     beta=0.70
     Davidson diagonalization with overlap
     ethr =  1.00E-02,  avg # of iterations =  5.0

     total cpu time spent up to now is        2.3 secs

     total energy              =43069631.89656347 Ry
     Harris-Foulkes estimate   =43069270.36861611 Ry
     estimated scf accuracy    <    1079.24512704 Ry

     iteration #  3     ecut=    30.00 Ry     beta=0.70
     Davidson diagonalization with overlap
     ethr =  1.00E-02,  avg # of iterations =  4.0

     total cpu time spent up to now is        3.0 secs

     total energy              =43069521.59798827 Ry
     Harris-Foulkes estimate   =43069495.68026432 Ry
     estimated scf accuracy    <      97.21770860 Ry

     iteration #  4     ecut=    30.00 Ry     beta=0.70
     Davidson diagonalization with overlap
     ethr =  1.00E-02,  avg # of iterations =  4.0

     total cpu time spent up to now is        3.4 secs

     total energy              =43069521.28839947 Ry
     Harris-Foulkes estimate   =43069511.24341901 Ry
     estimated scf accuracy    <      58.20283963 Ry

     iteration #  5     ecut=    30.00 Ry     beta=0.70
     Davidson diagonalization with overlap
     ethr =  1.00E-02,  avg # of iterations =  2.0

     total cpu time spent up to now is        3.8 secs

     total energy              =43069522.32285092 Ry
     Harris-Foulkes estimate   =43069517.82247198 Ry
     estimated scf accuracy    <      32.39739627 Ry

     iteration #  6     ecut=    30.00 Ry     beta=0.70
     Davidson diagonalization with overlap
     ethr =  1.00E-02,  avg # of iterations =  2.0

     total cpu time spent up to now is        4.1 secs

     total energy              =43069523.69274761 Ry
     Harris-Foulkes estimate   =43069520.79115779 Ry
     estimated scf accuracy    <      13.42801660 Ry

     iteration #  7     ecut=    30.00 Ry     beta=0.70
     Davidson diagonalization with overlap
     ethr =  4.55E-03,  avg # of iterations =  4.0

     total cpu time spent up to now is        4.6 secs

     total energy              =43069522.55236018 Ry
     Harris-Foulkes estimate   =43069521.03122433 Ry
     estimated scf accuracy    <      10.49448543 Ry

     iteration #  8     ecut=    30.00 Ry     beta=0.70
     Davidson diagonalization with overlap
     ethr =  3.56E-03,  avg # of iterations =  1.0

     total cpu time spent up to now is        4.9 secs

     total energy              =43069522.45273755 Ry
     Harris-Foulkes estimate   =43069521.67043237 Ry
     estimated scf accuracy    <       4.19611146 Ry

     iteration #  9     ecut=    30.00 Ry     beta=0.70
     Davidson diagonalization with overlap
     ethr =  1.42E-03,  avg # of iterations =  3.0

     total cpu time spent up to now is        5.3 secs

     total energy              =43069522.10103329 Ry
     Harris-Foulkes estimate   =43069521.64643656 Ry
     estimated scf accuracy    <       3.25378347 Ry

     iteration # 10     ecut=    30.00 Ry     beta=0.70
     Davidson diagonalization with overlap
     ethr =  1.10E-03,  avg # of iterations =  6.0

     total cpu time spent up to now is        5.8 secs

     total energy              =43069521.98142372 Ry
     Harris-Foulkes estimate   =43069521.74042913 Ry
     estimated scf accuracy    <       2.27926642 Ry

     iteration # 11     ecut=    30.00 Ry     beta=0.70
     Davidson diagonalization with overlap
     ethr =  7.73E-04,  avg # of iterations =  1.0

     total cpu time spent up to now is        6.1 secs

     total energy              =43069522.03473814 Ry
     Harris-Foulkes estimate   =43069521.81394871 Ry
     estimated scf accuracy    <       1.38150418 Ry

     iteration # 12     ecut=    30.00 Ry     beta=0.70
     Davidson diagonalization with overlap
     ethr =  4.68E-04,  avg # of iterations =  2.0

     total cpu time spent up to now is        6.4 secs

     total energy              =43069521.91262584 Ry
     Harris-Foulkes estimate   =43069521.87773211 Ry
     estimated scf accuracy    <       0.24003908 Ry

     iteration # 13     ecut=    30.00 Ry     beta=0.70
     Davidson diagonalization with overlap
     ethr =  8.14E-05,  avg # of iterations =  4.0

     total cpu time spent up to now is        6.8 secs

     total energy              =43069521.90057436 Ry
     Harris-Foulkes estimate   =43069521.89216120 Ry
     estimated scf accuracy    <       0.03687834 Ry

     iteration # 14     ecut=    30.00 Ry     beta=0.70
     Davidson diagonalization with overlap
     ethr =  1.25E-05,  avg # of iterations =  5.0

     total cpu time spent up to now is        7.3 secs

     total energy              =43069521.89999770 Ry
     Harris-Foulkes estimate   =43069521.89284930 Ry
     estimated scf accuracy    <       0.02806220 Ry

     iteration # 15     ecut=    30.00 Ry     beta=0.70
     Davidson diagonalization with overlap
     ethr =  9.51E-06,  avg # of iterations =  4.0

     total cpu time spent up to now is        7.8 secs

     total energy              =43069521.89759153 Ry
     Harris-Foulkes estimate   =43069521.89427266 Ry
     estimated scf accuracy    <       0.01615747 Ry

     iteration # 16     ecut=    30.00 Ry     beta=0.70
     Davidson diagonalization with overlap
     ethr =  5.48E-06,  avg # of iterations =  2.0

     total cpu time spent up to now is        8.1 secs

     total energy              =43069521.89607020 Ry
     Harris-Foulkes estimate   =43069521.89557328 Ry
     estimated scf accuracy    <       0.00134332 Ry

     iteration # 17     ecut=    30.00 Ry     beta=0.70
     Davidson diagonalization with overlap
     ethr =  4.55E-07,  avg # of iterations =  3.0

     total cpu time spent up to now is        8.5 secs

     total energy              =43069521.89604201 Ry
     Harris-Foulkes estimate   =43069521.89561945 Ry
     estimated scf accuracy    <       0.00145345 Ry

     iteration # 18     ecut=    30.00 Ry     beta=0.70
     Davidson diagonalization with overlap
     ethr =  4.55E-07,  avg # of iterations =  3.0

     total cpu time spent up to now is        8.9 secs

     total energy              =43069521.89599515 Ry
     Harris-Foulkes estimate   =43069521.89555841 Ry
     estimated scf accuracy    <       0.00268588 Ry

     iteration # 19     ecut=    30.00 Ry     beta=0.70
     Davidson diagonalization with overlap
     ethr =  4.55E-07,  avg # of iterations =  3.0

     total cpu time spent up to now is        9.3 secs

     total energy              =43069521.89582024 Ry
     Harris-Foulkes estimate   =43069521.89572522 Ry
     estimated scf accuracy    <       0.00044799 Ry

     iteration # 20     ecut=    30.00 Ry     beta=0.70
     Davidson diagonalization with overlap
     ethr =  1.52E-07,  avg # of iterations =  3.0

     total cpu time spent up to now is        9.7 secs

     total energy              =43069521.89578298 Ry
     Harris-Foulkes estimate   =43069521.89575664 Ry
     estimated scf accuracy    <       0.00012904 Ry

     iteration # 21     ecut=    30.00 Ry     beta=0.70
     Davidson diagonalization with overlap
     ethr =  4.37E-08,  avg # of iterations =  3.0

     total cpu time spent up to now is       10.1 secs

     total energy              =43069521.89578483 Ry
     Harris-Foulkes estimate   =43069521.89574840 Ry
     estimated scf accuracy    <       0.00020788 Ry

     iteration # 22     ecut=    30.00 Ry     beta=0.70
     Davidson diagonalization with overlap
     ethr =  4.37E-08,  avg # of iterations =  3.0

     total cpu time spent up to now is       10.5 secs

     total energy              =43069521.89576963 Ry
     Harris-Foulkes estimate   =43069521.89576413 Ry
     estimated scf accuracy    <       0.00003163 Ry

     iteration # 23     ecut=    30.00 Ry     beta=0.70
     Davidson diagonalization with overlap
     ethr =  1.07E-08,  avg # of iterations =  2.0

     total cpu time spent up to now is       10.8 secs

     total energy              =43069521.89576928 Ry
     Harris-Foulkes estimate   =43069521.89576317 Ry
     estimated scf accuracy    <       0.00003858 Ry

     iteration # 24     ecut=    30.00 Ry     beta=0.70
     Davidson diagonalization with overlap
     ethr =  1.07E-08,  avg # of iterations =  2.0

     total cpu time spent up to now is       11.1 secs

     End of self-consistent calculation

          k = 0.0000 0.0000 0.0000 (  1007 PWs)   bands (ev):

  -288.1530-288.0312-287.8894-287.8033-287.7857-287.7136-276.7857-276.6784
  -241.0009-240.1247-239.3996-239.2042-238.8988-238.7486-238.5843-238.1764
  -237.6842-237.5196-104.5225-102.0598-101.9432-101.8483 -84.3724 -81.9986
   -81.5836 -81.5700 -81.3719 -81.3075 -81.1165 -81.0685 -80.7798 -80.6917
   -80.6378 -79.3449 -47.2291 -44.9641 -44.8261 -44.6086 -44.5279 -44.1539
   -44.1388 -44.0325 -43.9760 -43.2583 -42.5246 -42.3652 -41.8493 -40.3241
   -33.9172 -29.6335 -27.7490 -27.0842 -26.9533 -26.8938 -26.8135 -26.7573
   -26.7401 -26.6060 -26.4555 -26.3728 -26.3202 -26.2171 -26.1036 -26.0615
   -25.9957 -25.9382 -25.9111 -24.8321 -17.7653 -14.9641 -13.1300 -13.0953
   -12.4898 -12.4685 -12.2107 -12.0918 -11.9411 -10.9512 -10.7932 -10.5583
     0.5914   0.9272   1.4230   1.6731   1.7896   2.4296  17.1888  17.3100
    17.4805  17.5673  17.7584  18.0027  20.6889  22.6098  24.5007  29.3735
    32.2069  35.1193  37.8281  41.0413  42.6018  42.6986  44.6374  45.3467
    46.3834  47.1852  48.1034  48.7582  49.0771  49.6479  50.3908  50.9661
    51.8660  52.0014  52.8400  52.9589  53.7232  54.3934  54.7763  55.3021
    55.9137  56.2801  56.4457  56.7081  57.0089  57.1846  57.2832  57.4796
    57.7400  57.9072  58.0226  58.2469  58.6887  58.8438  58.9080  59.1274
    59.2859  59.5491  59.7919  60.2223  60.5362  60.6853  60.7680  61.0330
    61.2714  61.4499  61.5975  61.9316  62.1103  62.1666  62.3319  62.5476
    62.6268  62.7289  63.0236  63.2188  63.3800  63.5205  63.6077  63.6364
    63.8750  64.1498  64.2278  64.4744  64.7191  64.8621  65.0096  65.1145
    65.2328  65.3482  65.3582  65.7286  65.9557  66.0196  66.3451  66.6115
    66.8797  67.0445

     the Fermi energy is    61.9461 ev

!    total energy              =43069521.89576868 Ry
     Harris-Foulkes estimate   =43069521.89576577 Ry
     estimated scf accuracy    <       0.00000312 Ry

     The total energy is the sum of the following terms:

     one-electron contribution =   -4027.10748576 Ry
     hartree contribution      =    2016.32504235 Ry
     xc contribution           =    -497.87717303 Ry
     ewald contribution        =43072030.55872168 Ry
     smearing contrib. (-TS)   =      -0.00333656 Ry

     convergence has been achieved in  24 iterations

     Forces acting on atoms (cartesian axes, Ry/au):

     atom    1 type  1   force = ****************************    0.01008240
     atom    2 type  1   force = ****************************   16.14325528
     atom    3 type  1   force = ****************************    0.01007841
     atom    4 type  1   force = **************   -0.03766468    0.04579996
     atom    5 type  1   force =     0.00966919   -0.23489560    0.10400536
     atom    6 type  1   force = **************   -0.03827198    0.04582177
     atom    7 type  1   force = ****************************    0.01012177
     atom    8 type  1   force = ****************************   16.14304906
     atom    9 type  1   force = ****************************    0.01011778
     atom   10 type  1   force = ****************************   -0.02693662
     atom   11 type  1   force = ****************************   -0.37067492
     atom   12 type  1   force = ****************************   -0.02691489
     atom   13 type  1   force = **************    0.12000888   -0.29642379
     atom   14 type  1   force =     0.15037623    0.34850477   -0.28362890
     atom   15 type  1   force = **************    0.11950415   -0.29641970
     atom   16 type  1   force = ****************************   -0.02693051
     atom   17 type  1   force = ****************************   -0.37070902
     atom   18 type  1   force = ****************************   -0.02690881
     atom   19 type  2   force =     0.15042782    0.02563043  -25.70660158
     atom   20 type  3   force =    -0.07729217   -7.23586765   -2.50490627
     atom   21 type  3   force =     0.08490203    7.24416740   -2.58527678

     Total force = ************     Total SCF correction =     0.015776

     BFGS Geometry Optimization

     number of scf cycles    =   1
     number of bfgs steps    =   0

     energy   new            = ****************** Ry

     new trust radius        =       0.5000000000 bohr
     new conv_thr            =       0.0000100000 Ry


ATOMIC_POSITIONS (angstrom)
Ru       0.229140489   1.694546330   0.000000000
Ru       2.769952898   1.673195234   0.000000000
Ru       5.283693502   1.784138378   0.000000000
Ru       1.481056498   3.905630230   0.000000000
Ru       4.058850000   3.905630230   0.000000000
Ru       6.636643502   3.905630230   0.000000000
Ru       2.834006498   6.027122082   0.000000000
Ru       5.347747102   6.138065226   0.000000000
Ru       7.888559511   6.116714130   0.000000000
Ru       0.229140489   0.132294240   2.140750000
Ru       2.769952898   0.110943144   2.140750000
Ru       5.283693502   0.221886288   2.140750000
Ru       1.481056498   2.343378140   2.140750000
Ru       4.058850000   2.343378140   2.140750000
Ru       6.636643502   2.343378140   2.140750000
Ru       2.834006498   4.464869992   2.140750000
Ru       5.347747102   4.575813136   2.140750000
Ru       7.888559511   4.554462040   2.140750000
N        2.705900000   1.562252090   3.340750000
H        2.705900000   0.755810090   3.978353000
H        2.705900000   2.368694090   3.978353000



     Writing output data file Ruthenium4x3x2-NH2_RPBE.save
     NEW-OLD atomic charge density approx. for the potential

     Check: negative/imaginary core charge=   -0.000113    0.000000

     total cpu time spent up to now is       12.3 secs

     per-process dynamical memory:    28.9 Mb

     Self-consistent Calculation

     iteration #  1     ecut=    30.00 Ry     beta=0.70
     Davidson diagonalization with overlap
     ethr =  1.00E-06,  avg # of iterations =  7.0

     total cpu time spent up to now is       13.4 secs

     total energy              =    2929.34741094 Ry
     Harris-Foulkes estimate   =    2909.01423422 Ry
     estimated scf accuracy    <      24.70411377 Ry

     iteration #  2     ecut=    30.00 Ry     beta=0.70
     Davidson diagonalization with overlap
     ethr =  8.37E-03,  avg # of iterations =  4.0

     total cpu time spent up to now is       14.0 secs

     total energy              =    2939.95007752 Ry
     Harris-Foulkes estimate   =    2876.10593063 Ry
     estimated scf accuracy    <     227.17230472 Ry

     iteration #  3     ecut=    30.00 Ry     beta=0.70
     Davidson diagonalization with overlap
     ethr =  8.37E-03,  avg # of iterations =  4.0

     total cpu time spent up to now is       14.6 secs

     total energy              =    2917.94539474 Ry
     Harris-Foulkes estimate   =    2912.02734980 Ry
     estimated scf accuracy    <      14.71662462 Ry

     iteration #  4     ecut=    30.00 Ry     beta=0.70
     Davidson diagonalization with overlap
     ethr =  4.99E-03,  avg # of iterations =  3.0

     total cpu time spent up to now is       15.1 secs

     total energy              =    2916.77452257 Ry
     Harris-Foulkes estimate   =    2913.76497001 Ry
     estimated scf accuracy    <      11.80560860 Ry

     iteration #  5     ecut=    30.00 Ry     beta=0.70
     Davidson diagonalization with overlap
     ethr =  4.00E-03,  avg # of iterations =  2.0

     total cpu time spent up to now is       15.4 secs

     total energy              =    2915.24630945 Ry
     Harris-Foulkes estimate   =    2914.54108794 Ry
     estimated scf accuracy    <       2.89644019 Ry

     iteration #  6     ecut=    30.00 Ry     beta=0.70
     Davidson diagonalization with overlap
     ethr =  9.82E-04,  avg # of iterations =  2.0

     total cpu time spent up to now is       15.7 secs

     total energy              =    2915.21286855 Ry
     Harris-Foulkes estimate   =    2914.67793053 Ry
     estimated scf accuracy    <       2.48674347 Ry

     iteration #  7     ecut=    30.00 Ry     beta=0.70
     Davidson diagonalization with overlap
     ethr =  8.43E-04,  avg # of iterations =  2.0

     total cpu time spent up to now is       16.1 secs

     total energy              =    2914.97976369 Ry
     Harris-Foulkes estimate   =    2914.86252612 Ry
     estimated scf accuracy    <       0.53609611 Ry

     iteration #  8     ecut=    30.00 Ry     beta=0.70
     Davidson diagonalization with overlap
     ethr =  1.82E-04,  avg # of iterations =  3.0

     total cpu time spent up to now is       16.5 secs

     total energy              =    2914.97506607 Ry
     Harris-Foulkes estimate   =    2914.86887000 Ry
     estimated scf accuracy    <       0.59175741 Ry

     iteration #  9     ecut=    30.00 Ry     beta=0.70
     Davidson diagonalization with overlap
     ethr =  1.82E-04,  avg # of iterations =  2.0

     total cpu time spent up to now is       16.8 secs

     total energy              =    2914.93123985 Ry
     Harris-Foulkes estimate   =    2914.91833167 Ry
     estimated scf accuracy    <       0.06326020 Ry

     iteration # 10     ecut=    30.00 Ry     beta=0.70
     Davidson diagonalization with overlap
     ethr =  2.14E-05,  avg # of iterations =  4.0

     total cpu time spent up to now is       17.2 secs

     total energy              =    2914.92734770 Ry
     Harris-Foulkes estimate   =    2914.91997126 Ry
     estimated scf accuracy    <       0.03454539 Ry

     iteration # 11     ecut=    30.00 Ry     beta=0.70
     Davidson diagonalization with overlap
     ethr =  1.17E-05,  avg # of iterations =  2.0

     total cpu time spent up to now is       17.6 secs

     total energy              =    2914.92473654 Ry
     Harris-Foulkes estimate   =    2914.92254143 Ry
     estimated scf accuracy    <       0.00602905 Ry

     iteration # 12     ecut=    30.00 Ry     beta=0.70
     Davidson diagonalization with overlap
     ethr =  2.04E-06,  avg # of iterations =  3.0

     total cpu time spent up to now is       18.0 secs

     total energy              =    2914.92435316 Ry
     Harris-Foulkes estimate   =    2914.92268483 Ry
     estimated scf accuracy    <       0.00735702 Ry

     iteration # 13     ecut=    30.00 Ry     beta=0.70
     Davidson diagonalization with overlap
     ethr =  2.04E-06,  avg # of iterations =  2.0

     total cpu time spent up to now is       18.3 secs

     total energy              =    2914.92367218 Ry
     Harris-Foulkes estimate   =    2914.92313942 Ry
     estimated scf accuracy    <       0.00192021 Ry

     iteration # 14     ecut=    30.00 Ry     beta=0.70
     Davidson diagonalization with overlap
     ethr =  6.51E-07,  avg # of iterations =  2.0

     total cpu time spent up to now is       18.7 secs

     total energy              =    2914.92350679 Ry
     Harris-Foulkes estimate   =    2914.92324698 Ry
     estimated scf accuracy    <       0.00147542 Ry

     iteration # 15     ecut=    30.00 Ry     beta=0.70
     Davidson diagonalization with overlap
     ethr =  5.00E-07,  avg # of iterations =  1.0

     total cpu time spent up to now is       18.9 secs

     total energy              =    2914.92339864 Ry
     Harris-Foulkes estimate   =    2914.92334695 Ry
     estimated scf accuracy    <       0.00022381 Ry

     iteration # 16     ecut=    30.00 Ry     beta=0.70
     Davidson diagonalization with overlap
     ethr =  7.59E-08,  avg # of iterations =  2.0

     total cpu time spent up to now is       19.3 secs

     total energy              =    2914.92338870 Ry
     Harris-Foulkes estimate   =    2914.92334230 Ry
     estimated scf accuracy    <       0.00023285 Ry

     iteration # 17     ecut=    30.00 Ry     beta=0.70
     Davidson diagonalization with overlap
     ethr =  7.59E-08,  avg # of iterations =  2.0

     total cpu time spent up to now is       19.6 secs

     total energy              =    2914.92336903 Ry
     Harris-Foulkes estimate   =    2914.92336220 Ry
     estimated scf accuracy    <       0.00001917 Ry

     iteration # 18     ecut=    30.00 Ry     beta=0.70
     Davidson diagonalization with overlap
     ethr =  6.50E-09,  avg # of iterations =  3.0

     total cpu time spent up to now is       20.0 secs

     total energy              =    2914.92337330 Ry
     Harris-Foulkes estimate   =    2914.92335808 Ry
     estimated scf accuracy    <       0.00007979 Ry

     iteration # 19     ecut=    30.00 Ry     beta=0.70
     Davidson diagonalization with overlap
     ethr =  6.50E-09,  avg # of iterations =  3.0

     total cpu time spent up to now is       20.4 secs

     total energy              =    2914.92337294 Ry
     Harris-Foulkes estimate   =    2914.92335621 Ry
     estimated scf accuracy    <       0.00011773 Ry

     iteration # 20     ecut=    30.00 Ry     beta=0.70
     Davidson diagonalization with overlap
     ethr =  6.50E-09,  avg # of iterations =  3.0

     total cpu time spent up to now is       20.8 secs

     End of self-consistent calculation

          k = 0.0000 0.0000 0.0000 (  1007 PWs)   bands (ev):

  -255.7729-255.6637-240.6884-240.5260-191.2918-191.1543-189.7225-189.6176
  -132.8513-132.7418-129.1838-128.9615-128.5570-128.4260-116.1979-116.1445
  -105.2580-105.1378-103.6366-100.1886-100.0549 -99.7204 -81.4600 -77.0110
   -76.9274 -76.8226 -76.8207 -76.6973 -76.4977 -76.3726 -66.5700 -64.8582
   -64.7068 -64.2801 -44.3592 -43.9940 -40.6325 -40.3825 -39.8736 -39.6565
   -38.9549 -38.3982 -33.4716 -33.1133 -25.8879 -24.8260 -24.7359 -24.2981
   -23.9155 -22.0108 -19.3238 -19.0516 -18.5883 -18.5445 -18.5161 -18.2678
   -18.1454 -18.0903 -17.9974 -17.1249 -13.9836 -13.7988 -13.7924 -13.6228
   -13.4138 -13.2229 -12.9183 -12.3442 -12.2390 -11.8549 -11.7283 -11.6555
     1.4503   2.4333   2.9649   3.1421   8.9472   9.9314  17.3792  17.6636
    17.7482  17.8688  17.9153  17.9338  26.1052  26.2115  28.6139  29.2829
    30.3664  31.0933  33.0159  33.9323  34.9070  35.1229  36.8507  37.4787
    38.4256  39.1290  39.8250  40.0600  40.9347  41.1838  42.2482  43.8136
    44.1490  44.4458  45.3828  45.9338  46.2568  48.3996  48.9200  50.0296
    50.6313  51.0925  51.6073  52.7244  53.5591  53.7783  53.9387  54.0073
    54.1903  54.3393  54.7277  54.8687  54.9418  55.1921  55.3714  56.0251
    56.0836  56.2947  56.5793  57.0087  57.1677  57.3941  57.4652  57.8294
    58.1611  58.3816  58.5019  58.7600  59.0123  59.1880  59.5645  59.9856
    60.2963  60.3876  60.6030  60.7053  60.7869  60.9184  61.2994  61.3804
    61.6310  61.9472  62.0638  62.2456  62.7602  63.1075  63.7069  63.7655
    64.0229  64.3789  64.7088  65.0092  65.1071  65.3624  65.6451  66.0220
    66.3218  66.5874  66.7591  66.8859  67.0511  67.4225  67.7490  67.9945
    68.1820  68.2135

     the Fermi energy is    60.7099 ev

!    total energy              =    2914.92336834 Ry
     Harris-Foulkes estimate   =    2914.92336407 Ry
     estimated scf accuracy    <       0.00000456 Ry

     The total energy is the sum of the following terms:

     one-electron contribution =   -3370.85136965 Ry
     hartree contribution      =    1863.79080226 Ry
     xc contribution           =    -488.42369932 Ry
     ewald contribution        =    4910.41163401 Ry
     smearing contrib. (-TS)   =      -0.00399897 Ry

     convergence has been achieved in  20 iterations

     Forces acting on atoms (cartesian axes, Ry/au):

     atom    1 type  1   force =  1580.04080770  912.43655736   -0.12441332
     atom    2 type  1   force =  1057.94365859 1829.72746539   15.40146317
     atom    3 type  1   force =  -907.65051603 1571.82135319    0.13912246
     atom    4 type  1   force =  2114.37863864   -0.19569415   -0.01265676
     atom    5 type  1   force =     0.06596186   -0.15105883    0.01015539
     atom    6 type  1   force = -2114.81670944    0.07828581    0.12308000
     atom    7 type  1   force =   907.46892466-1571.36353772   -0.15572488
     atom    8 type  1   force = -1057.91786045-1829.76025007   15.49065087
     atom    9 type  1   force = -1580.10451963 -911.82824210    0.11096522
     atom   10 type  1   force =  1580.15054659  911.69875567   -0.01888673
     atom   11 type  1   force =  1057.47996800 1831.30241149   -0.17879914
     atom   12 type  1   force =  -907.54472228 1571.24167631    0.09983729
     atom   13 type  1   force =  2114.64117985   -0.00093469   -0.23585285
     atom   14 type  1   force =     0.03598714    0.22853573   -0.18076602
     atom   15 type  1   force = -2114.56663845    0.26745724   -0.28072042
     atom   16 type  1   force =   907.68477839-1571.67570733   -0.09820884
     atom   17 type  1   force = -1057.47842633-1831.75384334   -0.36375111
     atom   18 type  1   force = -1580.13434269 -912.30692433    0.01687371
     atom   19 type  2   force =     0.33119995    0.24469210  -24.24126877
     atom   20 type  3   force =     0.20654344   -7.49257856   -2.70772606
     atom   21 type  3   force =    -0.21445950    7.48158084   -2.79337321

     Total force =  7890.201059     Total SCF correction =     0.013414

     number of scf cycles    =   2
     number of bfgs steps    =   1

     energy   old            = ****************** Ry
     energy   new            =    2914.9233683383 Ry

     CASE: energy  _new > energy  _old

     new trust radius        =       0.2500686442 bohr
     new conv_thr            =       0.0000100000 Ry


ATOMIC_POSITIONS (angstrom)
Ru       0.114601703   1.628417372   0.000000000
Ru       2.737935243   1.617738893   0.000000000
Ru       5.347729164   1.673225696   0.000000000
Ru       1.417020836   3.905630230   0.000000000
Ru       4.058850000   3.905630230   0.000000000
Ru       6.700679164   3.905630230   0.000000000
Ru       2.769970836   6.138034764   0.000000000
Ru       5.379764757   6.193521567   0.000000000
Ru       8.003098297   6.182843088   0.000000000
Ru       0.114601703   0.066165282   2.140750000
Ru       2.737935243   0.055486803   2.140750000
Ru       5.347729164   0.110973606   2.140750000
Ru       1.417020836   2.343378140   2.140750000
Ru       4.058850000   2.343378140   2.140750000
Ru       6.700679164   2.343378140   2.140750000
Ru       2.769970836   4.575782674   2.140750000
Ru       5.379764757   4.631269477   2.140750000
Ru       8.003098297   4.620590998   2.140750000
N        2.705900000   1.562252090   3.340750000
H        2.705900000   0.755810090   3.978353000
H        2.705900000   2.368694090   3.978353000



     Writing output data file Ruthenium4x3x2-NH2_RPBE.save
     NEW-OLD atomic charge density approx. for the potential

     Check: negative/imaginary core charge=   -0.000113    0.000000

     total cpu time spent up to now is       21.0 secs

     per-process dynamical memory:    31.5 Mb

     Self-consistent Calculation

     iteration #  1     ecut=    30.00 Ry     beta=0.70
     Davidson diagonalization with overlap
     WARNING:     1 eigenvalues not converged in regterg
     c_bands:  1 eigenvalues not converged
     ethr =  1.00E-06,  avg # of iterations = 20.0

     total cpu time spent up to now is       22.9 secs

     total energy              =   14714.52006909 Ry
     Harris-Foulkes estimate   =   14699.95769641 Ry
     estimated scf accuracy    <      17.46403400 Ry

     iteration #  2     ecut=    30.00 Ry     beta=0.70
     Davidson diagonalization with overlap
     ethr =  5.92E-03,  avg # of iterations =  4.0

     total cpu time spent up to now is       23.5 secs

     total energy              =   14729.76994531 Ry
     Harris-Foulkes estimate   =   14646.51960259 Ry
     estimated scf accuracy    <     401.66027904 Ry

     iteration #  3     ecut=    30.00 Ry     beta=0.70
     Davidson diagonalization with overlap
     ethr =  5.92E-03,  avg # of iterations =  5.0

     total cpu time spent up to now is       24.2 secs

     total energy              =   14703.34988533 Ry
     Harris-Foulkes estimate   =   14702.26696066 Ry
     estimated scf accuracy    <       2.35369086 Ry

     iteration #  4     ecut=    30.00 Ry     beta=0.70
     Davidson diagonalization with overlap
     ethr =  7.98E-04,  avg # of iterations =  6.0

     total cpu time spent up to now is       24.8 secs

     total energy              =   14703.46151278 Ry
     Harris-Foulkes estimate   =   14702.20610078 Ry
     estimated scf accuracy    <       5.40301666 Ry

     iteration #  5     ecut=    30.00 Ry     beta=0.70
     Davidson diagonalization with overlap
     ethr =  7.98E-04,  avg # of iterations =  4.0

     total cpu time spent up to now is       25.3 secs

     total energy              =   14703.07757788 Ry
     Harris-Foulkes estimate   =   14702.46087378 Ry
     estimated scf accuracy    <       3.71721553 Ry

     iteration #  6     ecut=    30.00 Ry     beta=0.70
     Davidson diagonalization with overlap
     ethr =  7.98E-04,  avg # of iterations =  6.0

     total cpu time spent up to now is       25.8 secs

     total energy              =   14702.94313343 Ry
     Harris-Foulkes estimate   =   14702.51102804 Ry
     estimated scf accuracy    <       2.66911160 Ry

     iteration #  7     ecut=    30.00 Ry     beta=0.70
     Davidson diagonalization with overlap
     ethr =  7.98E-04,  avg # of iterations =  2.0

     total cpu time spent up to now is       26.2 secs

     total energy              =   14702.75539543 Ry
     Harris-Foulkes estimate   =   14702.68665843 Ry
     estimated scf accuracy    <       0.39323805 Ry

     iteration #  8     ecut=    30.00 Ry     beta=0.70
     Davidson diagonalization with overlap
     ethr =  1.33E-04,  avg # of iterations =  7.0

     total cpu time spent up to now is       26.8 secs

     total energy              =   14702.74097712 Ry
     Harris-Foulkes estimate   =   14702.69040988 Ry
     estimated scf accuracy    <       0.25817838 Ry

     iteration #  9     ecut=    30.00 Ry     beta=0.70
     Davidson diagonalization with overlap
     ethr =  8.75E-05,  avg # of iterations =  2.0

     total cpu time spent up to now is       27.1 secs

     total energy              =   14702.71761976 Ry
     Harris-Foulkes estimate   =   14702.71078477 Ry
     estimated scf accuracy    <       0.02484505 Ry

     iteration # 10     ecut=    30.00 Ry     beta=0.70
     Davidson diagonalization with overlap
     ethr =  8.42E-06,  avg # of iterations =  9.0

     total cpu time spent up to now is       27.8 secs

     total energy              =   14702.71552645 Ry
     Harris-Foulkes estimate   =   14702.71229279 Ry
     estimated scf accuracy    <       0.01055933 Ry

     iteration # 11     ecut=    30.00 Ry     beta=0.70
     Davidson diagonalization with overlap
     ethr =  3.58E-06,  avg # of iterations =  3.0

     total cpu time spent up to now is       28.2 secs

     total energy              =   14702.71479473 Ry
     Harris-Foulkes estimate   =   14702.71254480 Ry
     estimated scf accuracy    <       0.00920627 Ry

     iteration # 12     ecut=    30.00 Ry     beta=0.70
     Davidson diagonalization with overlap
     ethr =  3.12E-06,  avg # of iterations = 11.0

     total cpu time spent up to now is       29.0 secs

     total energy              =   14702.71416295 Ry
     Harris-Foulkes estimate   =   14702.71292181 Ry
     estimated scf accuracy    <       0.00562869 Ry

     iteration # 13     ecut=    30.00 Ry     beta=0.70
     Davidson diagonalization with overlap
     ethr =  1.91E-06,  avg # of iterations =  2.0

     total cpu time spent up to now is       29.4 secs

     total energy              =   14702.71368232 Ry
     Harris-Foulkes estimate   =   14702.71332632 Ry
     estimated scf accuracy    <       0.00155465 Ry

     iteration # 14     ecut=    30.00 Ry     beta=0.70
     Davidson diagonalization with overlap
     ethr =  5.27E-07,  avg # of iterations =  2.0

     total cpu time spent up to now is       29.7 secs

     total energy              =   14702.71352326 Ry
     Harris-Foulkes estimate   =   14702.71342345 Ry
     estimated scf accuracy    <       0.00072311 Ry

     iteration # 15     ecut=    30.00 Ry     beta=0.70
     Davidson diagonalization with overlap
     ethr =  2.45E-07,  avg # of iterations =  2.0

     total cpu time spent up to now is       30.0 secs

     total energy              =   14702.71351296 Ry
     Harris-Foulkes estimate   =   14702.71343855 Ry
     estimated scf accuracy    <       0.00047893 Ry

     iteration # 16     ecut=    30.00 Ry     beta=0.70
     Davidson diagonalization with overlap
     ethr =  1.62E-07,  avg # of iterations =  2.0

     total cpu time spent up to now is       30.3 secs

     total energy              =   14702.71349100 Ry
     Harris-Foulkes estimate   =   14702.71345086 Ry
     estimated scf accuracy    <       0.00026990 Ry

     iteration # 17     ecut=    30.00 Ry     beta=0.70
     Davidson diagonalization with overlap
     ethr =  9.15E-08,  avg # of iterations =  2.0

     total cpu time spent up to now is       30.6 secs

     total energy              =   14702.71347297 Ry
     Harris-Foulkes estimate   =   14702.71346388 Ry
     estimated scf accuracy    <       0.00004156 Ry

     iteration # 18     ecut=    30.00 Ry     beta=0.70
     Davidson diagonalization with overlap
     ethr =  1.41E-08,  avg # of iterations =  3.0

     total cpu time spent up to now is       31.0 secs

     total energy              =   14702.71347155 Ry
     Harris-Foulkes estimate   =   14702.71346448 Ry
     estimated scf accuracy    <       0.00003698 Ry

     iteration # 19     ecut=    30.00 Ry     beta=0.70
     Davidson diagonalization with overlap
     ethr =  1.25E-08,  avg # of iterations =  2.0

     total cpu time spent up to now is       31.3 secs

     End of self-consistent calculation

          k = 0.0000 0.0000 0.0000 (  1007 PWs)   bands (ev):

  -275.3971-275.2697-268.2875-268.2237-258.1144-258.0050-256.8306-256.7433
  -202.3875-202.3152-200.6541-199.6794-198.7794-198.6961-187.5642-187.5422
  -187.2901-187.0913-104.6624-101.7482-101.6095-101.4828 -83.9539 -80.4507
   -80.1909 -80.1506 -80.1303 -80.1240 -80.0662 -79.9910 -76.9635 -76.9226
   -76.7349 -76.4766 -44.8177 -44.1654 -43.8190 -43.4038 -42.1944 -41.6216
   -41.4284 -40.2684 -40.1403 -39.9472 -39.5603 -38.6973 -38.3551 -37.7840
   -31.7806 -27.3665 -25.5254 -24.7035 -24.5929 -24.5533 -24.3200 -24.2344
   -24.1738 -23.9574 -23.0899 -22.7990 -22.6957 -22.6208 -22.5327 -22.4092
   -22.1980 -22.0732 -21.8144 -21.4311 -12.1326 -11.9991  -5.8826  -5.5756
    -5.1857  -5.0231  -4.6280  -3.4026   0.7690   1.1165   2.7168   4.8049
     6.7408   7.9639  10.3214  12.2563  12.9420  13.1014  14.3441  14.4037
    17.3007  17.3922  17.5124  17.5844  17.7034  17.8689  31.2847  34.4140
    35.1886  37.8250  38.1672  41.0812  42.0051  42.1372  44.3380  44.8787
    45.7479  46.6644  47.5819  47.8263  48.6162  49.0639  49.6147  50.9624
    52.2802  52.5279  52.8253  53.3944  53.4815  54.2749  54.5960  55.4072
    55.6127  55.9950  56.6480  56.6923  57.0090  57.1771  57.3380  57.4822
    57.5270  57.6141  57.6791  57.6952  58.1564  58.3275  58.6420  58.6532
    58.9753  59.1530  59.4280  59.7574  60.2154  60.5027  60.5418  60.6814
    60.9550  61.2212  61.3603  61.4589  61.5779  61.7798  62.0152  62.2995
    62.4164  62.6235  62.7330  62.9849  63.0564  63.3708  63.4419  63.7847
    64.0009  64.0786  64.4041  64.7345  64.8643  65.0296  65.2743  65.2990
    65.4098  65.4624  65.6257  65.6875  65.9286  66.0976  66.2772  66.6153
    66.7304  67.1457

     the Fermi energy is    61.4674 ev

!    total energy              =   14702.71347520 Ry
     Harris-Foulkes estimate   =   14702.71346676 Ry
     estimated scf accuracy    <       0.00000898 Ry

     The total energy is the sum of the following terms:

     one-electron contribution =   -3836.33730121 Ry
     hartree contribution      =    1983.69437615 Ry
     xc contribution           =    -495.28831665 Ry
     ewald contribution        =   17050.64607330 Ry
     smearing contrib. (-TS)   =      -0.00135638 Ry

     convergence has been achieved in  19 iterations

     Forces acting on atoms (cartesian axes, Ry/au):

     atom    1 type  1   force =  6904.37859191 3986.56141161   -0.03589311
     atom    2 type  1   force =  4338.52798761 7512.82181869   15.95440331
     atom    3 type  1   force = -3959.41394466 6858.13317386   -0.04093835
     atom    4 type  1   force =  8675.75649712    0.09472208    0.03220529
     atom    5 type  1   force =     0.03919654   -0.17577639    0.04871746
     atom    6 type  1   force = -8676.12892141   -0.27251502    0.02041600
     atom    7 type  1   force =  3959.43557582-6857.59645383    0.10472211
     atom    8 type  1   force = -4338.38970309-7512.71289793   15.77812163
     atom    9 type  1   force = -6904.38708692-3985.87601835    0.10909541
     atom   10 type  1   force =  6904.56341959 3985.82472171    0.04412215
     atom   11 type  1   force =  4338.43580347 7513.35720739   -0.33288215
     atom   12 type  1   force = -3959.53152844 6857.79843362   -0.05020776
     atom   13 type  1   force =  8675.68914173    0.30966439   -0.24114412
     atom   14 type  1   force =     0.05765773    0.29000776   -0.27849372
     atom   15 type  1   force = -8675.99074308    0.00165027   -0.32625040
     atom   16 type  1   force =  3959.65193761-6858.18320169   -0.00948368
     atom   17 type  1   force = -4338.25707713-7513.89609645   -0.37138094
     atom   18 type  1   force = -6904.62608850-3986.56587640   -0.07064945
     atom   19 type  2   force =     0.19583676    0.09673698  -25.15558026
     atom   20 type  3   force =    -0.11345972   -7.30118207   -2.53437426
     atom   21 type  3   force =     0.10690709    7.29046976   -2.64452516

     Total force = 33275.333993     Total SCF correction =     0.030880

     number of scf cycles    =   3
     number of bfgs steps    =   1

     energy   old            = ****************** Ry
     energy   new            =   14702.7134751990 Ry

     CASE: energy  _new > energy  _old

     new trust radius        =       0.1251029663 bohr
     new conv_thr            =       0.0000100000 Ry


ATOMIC_POSITIONS (angstrom)
Ru       0.057332310   1.595352894   0.000000000
Ru       2.721926415   1.590010723   0.000000000
Ru       5.379746994   1.617769356   0.000000000
Ru       1.385003006   3.905630230   0.000000000
Ru       4.058850000   3.905630230   0.000000000
Ru       6.732696994   3.905630230   0.000000000
Ru       2.737953006   6.193491104   0.000000000
Ru       5.395773585   6.221249737   0.000000000
Ru       8.060367690   6.215907566   0.000000000
Ru       0.057332310   0.033100804   2.140750000
Ru       2.721926415   0.027758633   2.140750000
Ru       5.379746994   0.055517266   2.140750000
Ru       1.385003006   2.343378140   2.140750000
Ru       4.058850000   2.343378140   2.140750000
Ru       6.732696994   2.343378140   2.140750000
Ru       2.737953006   4.631239014   2.140750000
Ru       5.395773585   4.658997647   2.140750000
Ru       8.060367690   4.653655476   2.140750000
N        2.705900000   1.562252090   3.340750000
H        2.705900000   0.755810090   3.978353000
H        2.705900000   2.368694090   3.978353000



     Writing output data file Ruthenium4x3x2-NH2_RPBE.save
     NEW-OLD atomic charge density approx. for the potential

     Check: negative/imaginary core charge=   -0.000113    0.000000

     total cpu time spent up to now is       31.5 secs

     per-process dynamical memory:    31.5 Mb

     Self-consistent Calculation

     iteration #  1     ecut=    30.00 Ry     beta=0.70
     Davidson diagonalization with overlap
     ethr =  1.00E-06,  avg # of iterations = 15.0

     total cpu time spent up to now is       32.8 secs

     total energy              =   38895.28363066 Ry
     Harris-Foulkes estimate   =   38893.01170386 Ry
     estimated scf accuracy    <       2.70422827 Ry

     iteration #  2     ecut=    30.00 Ry     beta=0.70
     Davidson diagonalization with overlap
     ethr =  9.17E-04,  avg # of iterations =  4.0

     total cpu time spent up to now is       33.4 secs

     total energy              =   38902.77263459 Ry
     Harris-Foulkes estimate   =   38881.53851189 Ry
     estimated scf accuracy    <     153.25856376 Ry

     iteration #  3     ecut=    30.00 Ry     beta=0.70
     Davidson diagonalization with overlap
     ethr =  9.17E-04,  avg # of iterations =  6.0

     total cpu time spent up to now is       34.1 secs

     total energy              =   38893.70662489 Ry
     Harris-Foulkes estimate   =   38893.38673128 Ry
     estimated scf accuracy    <       0.74919670 Ry

     iteration #  4     ecut=    30.00 Ry     beta=0.70
     Davidson diagonalization with overlap
     ethr =  2.54E-04,  avg # of iterations =  5.0

     total cpu time spent up to now is       34.7 secs

     total energy              =   38893.81737556 Ry
     Harris-Foulkes estimate   =   38893.18498190 Ry
     estimated scf accuracy    <       4.03921893 Ry

     iteration #  5     ecut=    30.00 Ry     beta=0.70
     Davidson diagonalization with overlap
     ethr =  2.54E-04,  avg # of iterations =  5.0

     total cpu time spent up to now is       35.3 secs

     total energy              =   38893.58696599 Ry
     Harris-Foulkes estimate   =   38893.41474843 Ry
     estimated scf accuracy    <       1.04573314 Ry

     iteration #  6     ecut=    30.00 Ry     beta=0.70
     Davidson diagonalization with overlap
     ethr =  2.54E-04,  avg # of iterations =  3.0

     total cpu time spent up to now is       35.6 secs

     total energy              =   38893.52329815 Ry
     Harris-Foulkes estimate   =   38893.44371926 Ry
     estimated scf accuracy    <       0.46228521 Ry

     iteration #  7     ecut=    30.00 Ry     beta=0.70
     Davidson diagonalization with overlap
     ethr =  1.57E-04,  avg # of iterations =  2.0

     total cpu time spent up to now is       36.0 secs

     total energy              =   38893.48931212 Ry
     Harris-Foulkes estimate   =   38893.48008574 Ry
     estimated scf accuracy    <       0.02335457 Ry

     iteration #  8     ecut=    30.00 Ry     beta=0.70
     Davidson diagonalization with overlap
     ethr =  7.92E-06,  avg # of iterations =  5.0

     total cpu time spent up to now is       36.5 secs

     total energy              =   38893.48763131 Ry
     Harris-Foulkes estimate   =   38893.47933926 Ry
     estimated scf accuracy    <       0.03776834 Ry

     iteration #  9     ecut=    30.00 Ry     beta=0.70
     Davidson diagonalization with overlap
     ethr =  7.92E-06,  avg # of iterations =  4.0

     total cpu time spent up to now is       37.0 secs

     total energy              =   38893.48442213 Ry
     Harris-Foulkes estimate   =   38893.48176862 Ry
     estimated scf accuracy    <       0.01180395 Ry

     iteration # 10     ecut=    30.00 Ry     beta=0.70
     Davidson diagonalization with overlap
     ethr =  4.00E-06,  avg # of iterations =  4.0

     total cpu time spent up to now is       37.4 secs

     total energy              =   38893.48348899 Ry
     Harris-Foulkes estimate   =   38893.48242534 Ry
     estimated scf accuracy    <       0.00418158 Ry

     iteration # 11     ecut=    30.00 Ry     beta=0.70
     Davidson diagonalization with overlap
     ethr =  1.42E-06,  avg # of iterations =  2.0

     total cpu time spent up to now is       37.8 secs

     total energy              =   38893.48311422 Ry
     Harris-Foulkes estimate   =   38893.48271436 Ry
     estimated scf accuracy    <       0.00142785 Ry

     iteration # 12     ecut=    30.00 Ry     beta=0.70
     Davidson diagonalization with overlap
     ethr =  4.84E-07,  avg # of iterations =  3.0

     total cpu time spent up to now is       38.2 secs

     total energy              =   38893.48312789 Ry
     Harris-Foulkes estimate   =   38893.48264444 Ry
     estimated scf accuracy    <       0.00275597 Ry

     iteration # 13     ecut=    30.00 Ry     beta=0.70
     Davidson diagonalization with overlap
     ethr =  4.84E-07,  avg # of iterations =  2.0

     total cpu time spent up to now is       38.5 secs

     total energy              =   38893.48291965 Ry
     Harris-Foulkes estimate   =   38893.48283793 Ry
     estimated scf accuracy    <       0.00063926 Ry

     iteration # 14     ecut=    30.00 Ry     beta=0.70
     Davidson diagonalization with overlap
     ethr =  2.17E-07,  avg # of iterations =  2.0

     total cpu time spent up to now is       38.8 secs

     total energy              =   38893.48289427 Ry
     Harris-Foulkes estimate   =   38893.48285656 Ry
     estimated scf accuracy    <       0.00014380 Ry

     iteration # 15     ecut=    30.00 Ry     beta=0.70
     Davidson diagonalization with overlap
     ethr =  4.87E-08,  avg # of iterations =  3.0

     total cpu time spent up to now is       39.2 secs

     total energy              =   38893.48288920 Ry
     Harris-Foulkes estimate   =   38893.48285262 Ry
     estimated scf accuracy    <       0.00027330 Ry

     iteration # 16     ecut=    30.00 Ry     beta=0.70
     Davidson diagonalization with overlap
     ethr =  4.87E-08,  avg # of iterations =  2.0

     total cpu time spent up to now is       39.5 secs

     total energy              =   38893.48287577 Ry
     Harris-Foulkes estimate   =   38893.48286375 Ry
     estimated scf accuracy    <       0.00007534 Ry

     iteration # 17     ecut=    30.00 Ry     beta=0.70
     Davidson diagonalization with overlap
     ethr =  2.55E-08,  avg # of iterations =  2.0

     total cpu time spent up to now is       39.8 secs

     End of self-consistent calculation

          k = 0.0000 0.0000 0.0000 (  1007 PWs)   bands (ev):

  -284.3389-284.2892-280.0151-279.8492-279.4378-279.2765-274.1051-273.9836
  -229.4918-228.5937-227.7909-227.6845-227.4635-226.9632-224.0626-223.8740
  -223.4568-223.3775-104.5581-101.9845-101.8375-101.7345 -84.2688 -81.3438
   -81.1829 -81.1106 -80.9258 -80.8289 -80.8203 -80.7707 -80.0451 -79.7667
   -79.7165 -78.9158 -45.6503 -45.1305 -44.4807 -43.9208 -43.8515 -43.7160
   -43.4152 -43.3452 -43.2215 -43.1301 -42.5190 -41.0202 -40.3957 -38.9950
   -33.3585 -28.9746 -27.2048 -26.3561 -26.2010 -26.1744 -26.0667 -26.0045
   -25.9623 -25.7134 -25.6022 -25.4826 -25.3688 -25.2802 -25.2094 -25.1539
   -25.1296 -24.9580 -24.9362 -23.9429 -12.2158 -12.1834 -11.9499  -9.2396
    -6.9489  -6.8540  -6.4505  -5.7021  -5.0741  -4.8826  -4.4380  -4.2548
    -1.0960  -0.8187  -0.5471  -0.3239  -0.1932   0.5176  17.1636  17.3121
    17.4646  17.5589  17.7518  17.9974  19.4911  21.9606  28.2687  31.9540
    32.3153  35.1655  37.8663  40.9839  42.4836  42.5495  44.6280  45.2304
    46.2062  47.0772  47.9967  48.5971  48.9750  49.5155  50.2550  50.9811
    52.0460  52.2232  52.7617  53.0630  53.6570  54.3771  54.8008  55.2431
    55.8766  56.2611  56.5456  56.6604  57.1105  57.2034  57.2228  57.4916
    57.6877  57.8317  57.9338  58.2170  58.6141  58.7474  58.8407  59.1085
    59.2025  59.4342  59.7350  60.1274  60.5055  60.6153  60.7325  60.9570
    61.2056  61.4426  61.6255  61.8970  61.9575  62.1421  62.2618  62.5201
    62.5471  62.7145  63.0024  63.1850  63.3183  63.4366  63.6054  63.7331
    63.8992  64.1778  64.2585  64.5752  64.6507  64.9423  65.0755  65.2355
    65.2459  65.3617  65.5019  65.7320  65.9138  66.0363  66.3000  66.5412
    66.8463  67.0727

     the Fermi energy is    61.8821 ev

!    total energy              =   38893.48287608 Ry
     Harris-Foulkes estimate   =   38893.48286794 Ry
     estimated scf accuracy    <       0.00000869 Ry

     The total energy is the sum of the following terms:

     one-electron contribution =   -3976.39612627 Ry
     hartree contribution      =    2009.59668250 Ry
     xc contribution           =    -497.32409407 Ry
     ewald contribution        =   41357.60945343 Ry
     smearing contrib. (-TS)   =      -0.00303951 Ry

     convergence has been achieved in  17 iterations

     Forces acting on atoms (cartesian axes, Ry/au):

     atom    1 type  1   force = 27963.3145789916145.05622411   -0.01069183
     atom    2 type  1   force = 17381.1309610130104.07388170   16.14892771
     atom    3 type  1   force = **************27768.51669453   -0.01281683
     atom    4 type  1   force = 34761.40449992    0.12872044    0.04460857
     atom    5 type  1   force =    -0.00201377   -0.23151182    0.08213426
     atom    6 type  1   force = **************   -0.24301623    0.05793491
     atom    7 type  1   force = 16031.93147832**************    0.04433503
     atom    8 type  1   force = ****************************   16.01462068
     atom    9 type  1   force = ****************************    0.04753758
     atom   10 type  1   force = 27963.3124678216144.33079120   -0.03441365
     atom   11 type  1   force = 17381.0776779630104.25314898   -0.34769445
     atom   12 type  1   force = **************27767.85633424   -0.02121630
     atom   13 type  1   force = 34761.37264071    0.29088903   -0.28818168
     atom   14 type  1   force =     0.14918813    0.33703017   -0.28336386
     atom   15 type  1   force = **************   -0.02310048   -0.29793976
     atom   16 type  1   force = 16031.94078870**************   -0.03912616
     atom   17 type  1   force = ****************************   -0.38143068
     atom   18 type  1   force = ****************************   -0.03441121
     atom   19 type  2   force =     0.14733788    0.03850402  -25.55360511
     atom   20 type  3   force =    -0.06657576   -7.24781570   -2.52263742
     atom   21 type  3   force =     0.07352409    7.25231908   -2.61256980

     Total force = ************     Total SCF correction =     0.038227

     number of scf cycles    =   5
     number of bfgs steps    =   2

     energy   old            = 1131570.6692121399 Ry
     energy   new            =   38893.4828760827 Ry

     CASE: energy  _new < energy  _old


     WARNING: bfgs curvature condition failed, Theta= 0.800
     new trust radius        =       0.3650758960 bohr
     new conv_thr            =       0.0000100000 Ry


ATOMIC_POSITIONS (angstrom)
Ru       0.038833919   1.584675414  -0.000000028
Ru       2.818521749   1.757316548   0.000042421
Ru       5.389057552   1.601646817  -0.000000033
Ru       1.578189777   3.905630565   0.000000117
Ru       4.058849996   3.905629623   0.000000215
Ru       6.539509447   3.905629597   0.000000151
Ru       2.728642591   6.209615256   0.000000116
Ru       5.299178528   6.053944081   0.000042071
Ru       8.078866246   6.226586787   0.000000124
Ru       0.038833913   0.022421423   2.140749910
Ru       2.818521612   0.195064919   2.140749086
Ru       5.389057366   0.039392996   2.140749945
Ru       1.578189695   2.343378902   2.140749244
Ru       4.058850391   2.343379024   2.140749256
Ru       6.539509431   2.343378084   2.140749218
Ru       2.728642615   4.647361828   2.140749898
Ru       5.299178794   4.491690259   2.140748999
Ru       8.078865973   4.664333096   2.140749910
N        2.705900387   1.562252189   3.340682867
H        2.705899825   0.755791051   3.978346375
H        2.705900193   2.368713141   3.978346139



     Writing output data file Ruthenium4x3x2-NH2_RPBE.save
     NEW-OLD atomic charge density approx. for the potential

     Check: negative/imaginary core charge=   -0.000113    0.000000

     total cpu time spent up to now is       40.0 secs

     per-process dynamical memory:    31.5 Mb

     Self-consistent Calculation

     iteration #  1     ecut=    30.00 Ry     beta=0.70
     Davidson diagonalization with overlap
     ethr =  1.00E-06,  avg # of iterations =  7.0

     total cpu time spent up to now is       41.1 secs

     total energy              =   38648.53466711 Ry
     Harris-Foulkes estimate   =   38639.57375718 Ry
     estimated scf accuracy    <      11.91506645 Ry

     iteration #  2     ecut=    30.00 Ry     beta=0.70
     Davidson diagonalization with overlap
     ethr =  4.04E-03,  avg # of iterations =  3.0

     total cpu time spent up to now is       41.6 secs

     total energy              =   38661.16086055 Ry
     Harris-Foulkes estimate   =   38617.93828783 Ry
     estimated scf accuracy    <     206.48669212 Ry

     iteration #  3     ecut=    30.00 Ry     beta=0.70
     Davidson diagonalization with overlap
     ethr =  4.04E-03,  avg # of iterations =  5.0

     total cpu time spent up to now is       42.2 secs

     total energy              =   38644.63898916 Ry
     Harris-Foulkes estimate   =   38640.46045000 Ry
     estimated scf accuracy    <      13.78521198 Ry

     iteration #  4     ecut=    30.00 Ry     beta=0.70
     Davidson diagonalization with overlap
     ethr =  4.04E-03,  avg # of iterations =  3.0

     total cpu time spent up to now is       42.6 secs

     total energy              =   38644.31164639 Ry
     Harris-Foulkes estimate   =   38640.85767585 Ry
     estimated scf accuracy    <      19.18907618 Ry

     iteration #  5     ecut=    30.00 Ry     beta=0.70
     Davidson diagonalization with overlap
     ethr =  4.04E-03,  avg # of iterations =  2.0

     total cpu time spent up to now is       42.9 secs

     total energy              =   38643.32133517 Ry
     Harris-Foulkes estimate   =   38640.73455703 Ry
     estimated scf accuracy    <      23.84427319 Ry

     iteration #  6     ecut=    30.00 Ry     beta=0.70
     Davidson diagonalization with overlap
     ethr =  4.04E-03,  avg # of iterations =  1.0

     total cpu time spent up to now is       43.1 secs

     total energy              =   38642.27618161 Ry
     Harris-Foulkes estimate   =   38642.06818551 Ry
     estimated scf accuracy    <       0.81988103 Ry

     iteration #  7     ecut=    30.00 Ry     beta=0.70
     Davidson diagonalization with overlap
     ethr =  2.78E-04,  avg # of iterations =  6.0

     total cpu time spent up to now is       43.7 secs

     total energy              =   38642.20233103 Ry
     Harris-Foulkes estimate   =   38642.13320011 Ry
     estimated scf accuracy    <       0.28877347 Ry

     iteration #  8     ecut=    30.00 Ry     beta=0.70
     Davidson diagonalization with overlap
     ethr =  9.79E-05,  avg # of iterations =  4.0

     total cpu time spent up to now is       44.1 secs

     total energy              =   38642.18842267 Ry
     Harris-Foulkes estimate   =   38642.15190222 Ry
     estimated scf accuracy    <       0.14565928 Ry

     iteration #  9     ecut=    30.00 Ry     beta=0.70
     Davidson diagonalization with overlap
     ethr =  4.94E-05,  avg # of iterations =  2.0

     total cpu time spent up to now is       44.5 secs

     total energy              =   38642.17375507 Ry
     Harris-Foulkes estimate   =   38642.16596522 Ry
     estimated scf accuracy    <       0.02540260 Ry

     iteration # 10     ecut=    30.00 Ry     beta=0.70
     Davidson diagonalization with overlap
     ethr =  8.61E-06,  avg # of iterations =  2.0

     total cpu time spent up to now is       44.8 secs

     total energy              =   38642.17250353 Ry
     Harris-Foulkes estimate   =   38642.16656851 Ry
     estimated scf accuracy    <       0.01767975 Ry

     iteration # 11     ecut=    30.00 Ry     beta=0.70
     Davidson diagonalization with overlap
     ethr =  5.99E-06,  avg # of iterations =  2.0

     total cpu time spent up to now is       45.2 secs

     total energy              =   38642.16984391 Ry
     Harris-Foulkes estimate   =   38642.16878201 Ry
     estimated scf accuracy    <       0.00315918 Ry

     iteration # 12     ecut=    30.00 Ry     beta=0.70
     Davidson diagonalization with overlap
     ethr =  1.07E-06,  avg # of iterations =  2.0

     total cpu time spent up to now is       45.5 secs

     total energy              =   38642.16949000 Ry
     Harris-Foulkes estimate   =   38642.16917070 Ry
     estimated scf accuracy    <       0.00118017 Ry

     iteration # 13     ecut=    30.00 Ry     beta=0.70
     Davidson diagonalization with overlap
     ethr =  4.00E-07,  avg # of iterations =  2.0

     total cpu time spent up to now is       45.9 secs

     total energy              =   38642.16936484 Ry
     Harris-Foulkes estimate   =   38642.16924679 Ry
     estimated scf accuracy    <       0.00063309 Ry

     iteration # 14     ecut=    30.00 Ry     beta=0.70
     Davidson diagonalization with overlap
     ethr =  2.15E-07,  avg # of iterations =  2.0

     total cpu time spent up to now is       46.2 secs

     total energy              =   38642.16933226 Ry
     Harris-Foulkes estimate   =   38642.16925957 Ry
     estimated scf accuracy    <       0.00034555 Ry

     iteration # 15     ecut=    30.00 Ry     beta=0.70
     Davidson diagonalization with overlap
     ethr =  1.17E-07,  avg # of iterations =  2.0

     total cpu time spent up to now is       46.5 secs

     total energy              =   38642.16930458 Ry
     Harris-Foulkes estimate   =   38642.16928924 Ry
     estimated scf accuracy    <       0.00008228 Ry

     iteration # 16     ecut=    30.00 Ry     beta=0.70
     Davidson diagonalization with overlap
     ethr =  2.79E-08,  avg # of iterations =  2.0

     total cpu time spent up to now is       46.8 secs

     total energy              =   38642.16930009 Ry
     Harris-Foulkes estimate   =   38642.16928888 Ry
     estimated scf accuracy    <       0.00009608 Ry

     iteration # 17     ecut=    30.00 Ry     beta=0.70
     Davidson diagonalization with overlap
     ethr =  2.79E-08,  avg # of iterations =  1.0

     total cpu time spent up to now is       47.1 secs

     End of self-consistent calculation

          k = 0.0000 0.0000 0.0000 (  1007 PWs)   bands (ev):

  -285.6960-285.5781-283.5695-283.4482-283.3848-283.2730-274.9858-274.8589
  -234.7143-234.0655-232.9143-232.4751-232.2848-232.0573-231.2764-231.1184
  -230.7227-230.5251 -96.4327 -90.6381 -90.5750 -90.3633 -69.5115 -64.0848
   -61.3471 -61.2945 -61.2669 -61.2423 -61.0146 -60.9290 -45.9991 -44.6643
   -44.0949 -43.9124 -43.8192 -43.7426 -43.6610 -43.3613 -43.1793 -43.1742
   -43.1296 -42.5050 -41.2961 -40.7654 -39.3572 -37.4077 -37.1864 -37.0065
   -14.6334 -12.2119 -11.8194 -11.7375 -10.7924  -9.7536  -9.1831  -9.0820
    -8.9024  -8.4748  -8.3065  -8.1273  -8.0669  -6.2090  -4.4744  -2.8086
    -0.3064   0.2438   0.4535   0.6070   0.7210   1.2329   1.3303   1.3803
     1.5190   1.6225   1.6448   1.8611   1.8760   2.8766   3.2406   3.3204
     4.4330   4.6422   4.7547   4.9066   4.9792   5.1342  17.5547  17.5870
    17.6773  17.6943  17.8007  18.1067  20.8493  23.2713  26.1080  30.1078
    30.7278  34.0098  37.9251  38.9408  39.3908  40.6684  42.1868  42.6362
    43.5027  44.4653  44.9473  45.2006  45.8633  46.1516  47.6280  48.1955
    49.7392  50.4113  51.1085  53.3300  53.9614  54.0246  54.2338  54.3275
    54.7854  55.2965  55.7338  55.8374  56.5427  56.7346  56.7741  56.9872
    57.4252  57.5151  57.6389  58.1511  58.3095  58.3462  59.1827  59.3255
    59.6395  60.0064  60.2599  60.4523  60.5595  60.9622  61.0219  61.4582
    61.4935  61.6503  61.9383  62.0309  62.1571  62.3693  62.6527  62.7787
    63.0768  63.2902  63.3259  63.4486  63.8697  64.0531  64.0783  64.3862
    64.4138  64.6187  64.9161  65.0430  65.2966  65.4378  65.8024  66.2275
    66.5488  67.0164  67.2677  67.4213  67.6828  67.7322  68.3382  68.5999
    68.9069  69.5287

     the Fermi energy is    62.0480 ev

!    total energy              =   38642.16929684 Ry
     Harris-Foulkes estimate   =   38642.16929389 Ry
     estimated scf accuracy    <       0.00000318 Ry

     The total energy is the sum of the following terms:

     one-electron contribution =   -3801.23194929 Ry
     hartree contribution      =    1975.73255569 Ry
     xc contribution           =    -494.94429148 Ry
     ewald contribution        =   40962.61661155 Ry
     smearing contrib. (-TS)   =      -0.00362964 Ry

     convergence has been achieved in  17 iterations

     Forces acting on atoms (cartesian axes, Ry/au):

     atom    1 type  1   force = 57956.0506335433458.38075911   -0.09565700
     atom    2 type  1   force =   312.47317937  533.84379011   15.34548597
     atom    3 type  1   force = **************58122.49587646   -0.11438319
     atom    4 type  1   force =   619.60375897   -0.38932915    0.06005125
     atom    5 type  1   force =    -0.02071899   -0.19347433    0.00009412
     atom    6 type  1   force =  -619.72342628    0.19139598    0.04322322
     atom    7 type  1   force = 33559.85483193**************    0.12125658
     atom    8 type  1   force =  -312.30537039 -533.63226303   14.99890793
     atom    9 type  1   force = ****************************    0.13774957
     atom   10 type  1   force = 57956.0321594733458.21742634   -0.02043677
     atom   11 type  1   force =   309.95595667  537.78267377   -0.24147188
     atom   12 type  1   force = **************58122.01206276    0.05983812
     atom   13 type  1   force =   619.88692686   -0.05222028   -0.30639143
     atom   14 type  1   force =     0.06627063    0.23332835   -0.17581821
     atom   15 type  1   force =  -619.96986532    0.35428914   -0.02309461
     atom   16 type  1   force = 33559.61003734**************   -0.07524067
     atom   17 type  1   force =  -310.05509329 -538.21868363   -0.10879609
     atom   18 type  1   force = ****************************   -0.03191376
     atom   19 type  2   force =     0.07164475    0.05895761  -22.16338773
     atom   20 type  3   force =     1.08505149   -8.54851018   -3.68220171
     atom   21 type  3   force =    -1.10664388    8.55188804   -3.72781371

     Total force = ************     Total SCF correction =     0.014517

     number of scf cycles    =   6
     number of bfgs steps    =   3

     energy   old            =   38893.4828760827 Ry
     energy   new            =   38642.1692968423 Ry

     CASE: energy  _new > energy  _old

     new trust radius        =       0.1830390493 bohr
     new conv_thr            =       0.0000100000 Ry


ATOMIC_POSITIONS (angstrom)
Ru       0.048057723   1.589999498  -0.000000014
Ru       2.770356668   1.673893278   0.000021269
Ru       5.384415053   1.609685957  -0.000000017
Ru       1.481861559   3.905630398   0.000000059
Ru       4.058849998   3.905629926   0.000000108
Ru       6.635838052   3.905629913   0.000000076
Ru       2.733285019   6.201575312   0.000000058
Ru       5.347343471   6.137367266   0.000021093
Ru       8.069642359   6.221261835   0.000000062
Ru       0.048057720   0.027746455   2.140749955
Ru       2.770356600   0.111641420   2.140749542
Ru       5.384414959   0.047432999   2.140749972
Ru       1.481861518   2.343378522   2.140749621
Ru       4.058850196   2.343378583   2.140749627
Ru       6.635838044   2.343378112   2.140749608
Ru       2.733285031   4.639322552   2.140749949
Ru       5.347343604   4.575114308   2.140749498
Ru       8.069642222   4.659008942   2.140749955
N        2.705900194   1.562252140   3.340716341
H        2.705899912   0.755800544   3.978349678
H        2.705900097   2.368703642   3.978349560



     Writing output data file Ruthenium4x3x2-NH2_RPBE.save
     NEW-OLD atomic charge density approx. for the potential

     Check: negative/imaginary core charge=   -0.000113    0.000000

     total cpu time spent up to now is       47.3 secs

     per-process dynamical memory:    31.5 Mb

     Self-consistent Calculation

     iteration #  1     ecut=    30.00 Ry     beta=0.70
     Davidson diagonalization with overlap
     ethr =  1.00E-06,  avg # of iterations =  6.0

     total cpu time spent up to now is       48.2 secs

     total energy              =   32055.91480809 Ry
     Harris-Foulkes estimate   =   32050.68877388 Ry
     estimated scf accuracy    <       6.63442221 Ry

     iteration #  2     ecut=    30.00 Ry     beta=0.70
     Davidson diagonalization with overlap
     ethr =  2.25E-03,  avg # of iterations =  4.0

     total cpu time spent up to now is       48.8 secs

     total energy              =   32064.01132706 Ry
     Harris-Foulkes estimate   =   32034.63989754 Ry
     estimated scf accuracy    <     141.19989290 Ry

     iteration #  3     ecut=    30.00 Ry     beta=0.70
     Davidson diagonalization with overlap
     ethr =  2.25E-03,  avg # of iterations =  5.0

     total cpu time spent up to now is       49.5 secs

     total energy              =   32052.67489709 Ry
     Harris-Foulkes estimate   =   32051.11467653 Ry
     estimated scf accuracy    <       4.59192666 Ry

     iteration #  4     ecut=    30.00 Ry     beta=0.70
     Davidson diagonalization with overlap
     ethr =  1.56E-03,  avg # of iterations =  2.0

     total cpu time spent up to now is       49.8 secs

     total energy              =   32052.47474041 Ry
     Harris-Foulkes estimate   =   32051.34574723 Ry
     estimated scf accuracy    <       5.74149734 Ry

     iteration #  5     ecut=    30.00 Ry     beta=0.70
     Davidson diagonalization with overlap
     ethr =  1.56E-03,  avg # of iterations =  2.0

     total cpu time spent up to now is       50.2 secs

     total energy              =   32051.96104757 Ry
     Harris-Foulkes estimate   =   32051.56267837 Ry
     estimated scf accuracy    <       2.76202764 Ry

     iteration #  6     ecut=    30.00 Ry     beta=0.70
     Davidson diagonalization with overlap
     ethr =  9.36E-04,  avg # of iterations =  2.0

     total cpu time spent up to now is       50.5 secs

     total energy              =   32051.92081067 Ry
     Harris-Foulkes estimate   =   32051.62851516 Ry
     estimated scf accuracy    <       2.20721975 Ry

     iteration #  7     ecut=    30.00 Ry     beta=0.70
     Davidson diagonalization with overlap
     ethr =  7.48E-04,  avg # of iterations =  1.0

     total cpu time spent up to now is       50.8 secs

     total energy              =   32051.81385106 Ry
     Harris-Foulkes estimate   =   32051.74522604 Ry
     estimated scf accuracy    <       0.37332325 Ry

     iteration #  8     ecut=    30.00 Ry     beta=0.70
     Davidson diagonalization with overlap
     ethr =  1.27E-04,  avg # of iterations =  7.0

     total cpu time spent up to now is       51.3 secs

     total energy              =   32051.79043429 Ry
     Harris-Foulkes estimate   =   32051.76419523 Ry
     estimated scf accuracy    <       0.11112031 Ry

     iteration #  9     ecut=    30.00 Ry     beta=0.70
     Davidson diagonalization with overlap
     ethr =  3.77E-05,  avg # of iterations =  4.0

     total cpu time spent up to now is       51.8 secs

     total energy              =   32051.78288542 Ry
     Harris-Foulkes estimate   =   32051.77107249 Ry
     estimated scf accuracy    <       0.04953412 Ry

     iteration # 10     ecut=    30.00 Ry     beta=0.70
     Davidson diagonalization with overlap
     ethr =  1.68E-05,  avg # of iterations =  3.0

     total cpu time spent up to now is       52.2 secs

     total energy              =   32051.77852802 Ry
     Harris-Foulkes estimate   =   32051.77382737 Ry
     estimated scf accuracy    <       0.02077352 Ry

     iteration # 11     ecut=    30.00 Ry     beta=0.70
     Davidson diagonalization with overlap
     ethr =  7.04E-06,  avg # of iterations =  2.0

     total cpu time spent up to now is       52.5 secs

     total energy              =   32051.77758329 Ry
     Harris-Foulkes estimate   =   32051.77439646 Ry
     estimated scf accuracy    <       0.01287132 Ry

     iteration # 12     ecut=    30.00 Ry     beta=0.70
     Davidson diagonalization with overlap
     ethr =  4.36E-06,  avg # of iterations =  2.0

     total cpu time spent up to now is       52.8 secs

     total energy              =   32051.77632239 Ry
     Harris-Foulkes estimate   =   32051.77530439 Ry
     estimated scf accuracy    <       0.00421830 Ry

     iteration # 13     ecut=    30.00 Ry     beta=0.70
     Davidson diagonalization with overlap
     ethr =  1.43E-06,  avg # of iterations =  2.0

     total cpu time spent up to now is       53.2 secs

     total energy              =   32051.77600086 Ry
     Harris-Foulkes estimate   =   32051.77551143 Ry
     estimated scf accuracy    <       0.00428475 Ry

     iteration # 14     ecut=    30.00 Ry     beta=0.70
     Davidson diagonalization with overlap
     ethr =  1.43E-06,  avg # of iterations =  1.0

     total cpu time spent up to now is       53.5 secs

     total energy              =   32051.77576900 Ry
     Harris-Foulkes estimate   =   32051.77572057 Ry
     estimated scf accuracy    <       0.00029354 Ry

     iteration # 15     ecut=    30.00 Ry     beta=0.70
     Davidson diagonalization with overlap
     ethr =  9.95E-08,  avg # of iterations =  2.0

     total cpu time spent up to now is       53.8 secs

     total energy              =   32051.77574410 Ry
     Harris-Foulkes estimate   =   32051.77572890 Ry
     estimated scf accuracy    <       0.00004846 Ry

     iteration # 16     ecut=    30.00 Ry     beta=0.70
     Davidson diagonalization with overlap
     ethr =  1.64E-08,  avg # of iterations =  2.0

     total cpu time spent up to now is       54.1 secs

     total energy              =   32051.77574681 Ry
     Harris-Foulkes estimate   =   32051.77572737 Ry
     estimated scf accuracy    <       0.00010483 Ry

     iteration # 17     ecut=    30.00 Ry     beta=0.70
     Davidson diagonalization with overlap
     ethr =  1.64E-08,  avg # of iterations =  2.0

     total cpu time spent up to now is       54.5 secs

     total energy              =   32051.77574496 Ry
     Harris-Foulkes estimate   =   32051.77572754 Ry
     estimated scf accuracy    <       0.00017598 Ry

     iteration # 18     ecut=    30.00 Ry     beta=0.70
     Davidson diagonalization with overlap
     ethr =  1.64E-08,  avg # of iterations =  2.0

     total cpu time spent up to now is       54.8 secs

     total energy              =   32051.77573766 Ry
     Harris-Foulkes estimate   =   32051.77573430 Ry
     estimated scf accuracy    <       0.00001395 Ry

     iteration # 19     ecut=    30.00 Ry     beta=0.70
     Davidson diagonalization with overlap
     ethr =  4.73E-09,  avg # of iterations =  2.0

     total cpu time spent up to now is       55.1 secs

     End of self-consistent calculation

          k = 0.0000 0.0000 0.0000 (  1007 PWs)   bands (ev):

  -285.1735-285.0693-281.9440-281.8863-281.6010-281.4836-274.6132-274.5318
  -232.4310-231.5781-230.4404-230.3662-230.2405-229.8495-227.9355-227.7908
  -227.4117-227.2232-102.4581 -98.6309 -98.3553 -98.2315 -80.2543 -75.4533
   -75.4107 -75.1486 -75.0003 -74.8957 -74.8446 -74.8284 -65.1364 -63.0811
   -62.8967 -62.6793 -45.8814 -44.9028 -44.2014 -43.9059 -43.8453 -43.6922
   -43.4342 -43.3463 -43.1772 -43.0580 -42.5971 -41.2492 -40.6358 -39.1856
   -24.7253 -20.6502 -17.0466 -16.9176 -16.7853 -16.7082 -16.4334 -16.4086
   -16.3902 -15.5496 -13.5883 -12.3466 -12.1049 -11.9911 -11.8378 -11.7487
   -11.7311 -11.6974 -11.6261 -11.4015 -10.6832 -10.6483 -10.5652 -10.3722
    -8.3650  -7.8741  -7.5485  -7.0596  -6.9841  -6.8507  -6.5142  -6.1401
    -0.6959  -0.2637   0.0574   0.2303   0.3869   1.0168  17.6003  17.7501
    17.8204  17.9666  18.0070  18.3098  20.2348  22.7111  27.0994  31.0169
    31.5042  36.2173  39.5694  39.9882  41.4248  41.8990  44.0724  44.8070
    45.4678  46.7721  47.2062  47.9756  48.1240  49.0341  49.8916  50.5198
    52.2237  52.3240  53.1850  53.5567  54.0001  54.1160  54.5424  55.0817
    55.9492  56.3239  56.5060  56.6328  56.8217  57.3626  57.5013  57.5985
    57.6378  58.1790  58.3277  58.4509  58.4867  58.6834  58.9734  59.1923
    59.3549  59.8594  60.1226  60.1381  60.4996  60.8297  60.9245  61.0004
    61.4338  61.7007  61.7786  61.8405  61.9397  62.0621  62.3658  62.5541
    62.9464  62.9582  63.1437  63.1989  63.8109  63.9241  63.9980  64.0839
    64.2409  64.5911  64.6369  64.7810  64.9053  65.1432  65.2677  65.4114
    65.5278  65.6867  65.8352  66.1550  66.4402  66.6922  67.0919  67.3717
    67.9087  68.3023

     the Fermi energy is    61.8589 ev

!    total energy              =   32051.77574214 Ry
     Harris-Foulkes estimate   =   32051.77573514 Ry
     estimated scf accuracy    <       0.00000742 Ry

     The total energy is the sum of the following terms:

     one-electron contribution =   -3912.08094028 Ry
     hartree contribution      =    1998.57515883 Ry
     xc contribution           =    -496.28636151 Ry
     ewald contribution        =   34461.57113870 Ry
     smearing contrib. (-TS)   =      -0.00325359 Ry

     convergence has been achieved in  19 iterations

     Forces acting on atoms (cartesian axes, Ry/au):

     atom    1 type  1   force = 39001.8903079322517.32979000   -0.05386862
     atom    2 type  1   force =  1044.24354298 1805.46154330   15.46328473
     atom    3 type  1   force = **************38886.36354113   -0.05008402
[...]

     total energy              =   -3373.64371689 Ry
     Harris-Foulkes estimate   =   -3373.64377552 Ry
     estimated scf accuracy    <       0.00017813 Ry

     iteration # 11     ecut=    30.00 Ry     beta=0.70
     Davidson diagonalization with overlap
     ethr =  6.04E-08,  avg # of iterations =  2.0

     total cpu time spent up to now is      220.4 secs

     total energy              =   -3373.64373999 Ry
     Harris-Foulkes estimate   =   -3373.64375582 Ry
     estimated scf accuracy    <       0.00004101 Ry

     iteration # 12     ecut=    30.00 Ry     beta=0.70
     Davidson diagonalization with overlap
     ethr =  1.39E-08,  avg # of iterations =  2.0

     total cpu time spent up to now is      220.8 secs

     total energy              =   -3373.64374636 Ry
     Harris-Foulkes estimate   =   -3373.64375066 Ry
     estimated scf accuracy    <       0.00001234 Ry

     iteration # 13     ecut=    30.00 Ry     beta=0.70
     Davidson diagonalization with overlap
     ethr =  4.18E-09,  avg # of iterations =  2.0

     total cpu time spent up to now is      221.1 secs

     End of self-consistent calculation

          k = 0.0000 0.0000 0.0000 (  1007 PWs)   bands (ev):

   -24.5620 -22.7758 -21.7751 -21.0546 -20.5753 -18.9942 -18.3807 -18.1091
   -17.7499 -17.3541 -17.0300 -16.4007 -15.4360 -15.3987 -15.3073 -14.5161
   -14.3276 -14.2480  -0.4429   1.6163   2.5527   2.9167   3.1345   4.0079
     4.4964   4.9627   5.6122   6.0306   6.2999   6.6653   7.1654   7.5665
     8.0440   8.2568   8.7405   8.8819   9.3626   9.6787  10.1223  10.4977
    10.6291  10.9303  11.2305  11.5757  11.8823  12.3290  12.4229  12.7002
    13.0838  13.1846  13.5788  13.8791  14.0866  14.3624  14.8914  14.9270
    15.2560  15.3715  15.5024  15.7379  16.1264  16.3803  16.5384  16.8543
    17.1657  17.6464  17.8555  18.3492  18.3847  18.7693  19.0928  19.2946
    32.2465  36.6290  38.7947  39.5369  39.9413  40.4213  40.5726  41.2342
    41.6974  42.1443  42.3283  42.5746  42.9211  43.2196  43.6057  44.0158
    44.5453  44.8322  44.9703  45.3164  45.4362  45.9268  46.1048  46.2875
    46.3977  46.9853  47.1597  47.6892  47.8548  48.3614  48.6533  48.7121
    48.9780  49.3185  49.6198  49.9046  50.0889  50.4175  50.6026  50.8584
    51.3754  51.5954  52.0952  52.1666  52.4740  52.5918  52.9471  53.0534
    53.1314  53.5197  54.0265  54.2618  54.3621  54.5875  55.2231  55.5951
    55.8783  56.1094  56.2212  56.3518  56.6180  57.1882  57.6308  57.7593
    57.8696  58.0085  58.5041  58.7694  59.0012  59.2302  59.6271  59.8535
    60.1280  60.4627  60.8907  61.0903  61.3934  61.6301  61.7156  62.1103
    62.4860  62.9927  63.0958  63.1968  63.5780  63.6545  64.1812  64.3851
    64.7752  65.3509  65.6015  65.7436  66.2160  66.3118  67.0001  67.3853
    67.6932  67.7216  68.9179  68.9921  69.7093  70.4104  70.9160  70.9990
    71.6925  71.9223

     the Fermi energy is    61.0937 ev

!    total energy              =   -3373.64374609 Ry
     Harris-Foulkes estimate   =   -3373.64374930 Ry
     estimated scf accuracy    <       0.00000337 Ry

     The total energy is the sum of the following terms:

     one-electron contribution =     507.93879737 Ry
     hartree contribution      =     311.62057045 Ry
     xc contribution           =    -406.90417448 Ry
     ewald contribution        =   -3786.29889870 Ry
     smearing contrib. (-TS)   =      -0.00004074 Ry

     convergence has been achieved in  13 iterations

     Forces acting on atoms (cartesian axes, Ry/au):

     atom    1 type  1   force =    -1.67231618    0.20019135   -1.79113091
     atom    2 type  1   force =     0.86583537   -1.80697112   -2.72338286
     atom    3 type  1   force =     1.07557603   -0.19620597    1.79502219
     atom    4 type  1   force =     0.54315077    0.32799352    1.56238772
     atom    5 type  1   force =    -0.36491766    1.17346322    0.04221708
     atom    6 type  1   force =    -1.22522570    0.64162620    0.95261729
     atom    7 type  1   force =    -0.08505861   -0.50318268   -1.24945781
     atom    8 type  1   force =     1.86052818   -0.97146715   -0.34193003
     atom    9 type  1   force =    -0.69572298   -0.83632503    1.07665152
     atom   10 type  1   force =     1.42758684   -0.52062297   -0.18238910
     atom   11 type  1   force =    -0.19519892    2.13789512    0.56271365
     atom   12 type  1   force =     0.04756000   -1.75988195    0.84128091
     atom   13 type  1   force =     0.24730433    2.56678074    0.67423949
     atom   14 type  1   force =     0.90896773    0.12115994   -0.43252950
     atom   15 type  1   force =    -1.45455921   -2.30893333   -0.61733306
     atom   16 type  1   force =    -0.37953843    1.66804258   -1.21303356
     atom   17 type  1   force =    -1.26872722   -1.06609267   -0.32307258
     atom   18 type  1   force =     0.61610837    0.81922374   -0.10421292
     atom   19 type  2   force =    -0.15044574    0.01184074    0.56976438
     atom   20 type  3   force =    -0.08420845    0.02762266    0.45063553
     atom   21 type  3   force =    -0.01669853    0.27384306    0.45094259

     Total force =     8.598741     Total SCF correction =     0.020095

     number of scf cycles    =  33
     number of bfgs steps    =  25

     energy   old            =   -3373.4356521072 Ry
     energy   new            =   -3373.6437460856 Ry

     CASE: energy  _new < energy  _old

     new trust radius        =       0.8000000000 bohr
     new conv_thr            =       0.0000100000 Ry


ATOMIC_POSITIONS (angstrom)
Ru       1.740233966   0.873722592  -0.369937990
Ru       3.531223752   0.393165048   0.510408428
Ru       4.878903999   0.415868272  -0.867095456
Ru       0.281931852   4.809379011  -1.292685290
Ru       3.749323041   3.584960467  -0.291904685
Ru       6.045006678   2.956676115   1.584004431
Ru       3.018296439   7.358906933  -0.015803013
Ru       4.752406626   7.191838791   0.828464025
Ru       6.904922667   6.678136647   0.888507282
Ru       1.649723599  -0.345071893   1.163176556
Ru       2.857606180   1.416973661   1.803927525
Ru       5.750207059  -0.992789543   2.232724204
Ru       1.447008576   3.439034487   3.118885638
Ru       4.220044604   2.057730736   2.939392662
Ru       6.935475182   1.793760638   2.625239838
Ru       3.181014676   5.683939494   1.903774911
Ru       4.923867412   3.533436962   2.674906242
Ru       7.761581598   4.509074687   0.798861657
N        2.877069245   2.175834743   3.737375293
H        2.909348393   1.555170890   2.826493308
H        1.761804456   1.838082862   3.765490432



     Writing output data file Ruthenium4x3x2-NH2_RPBE.save
     NEW-OLD atomic charge density approx. for the potential

     Check: negative/imaginary core charge=   -0.000113    0.000000

     total cpu time spent up to now is      221.3 secs

     per-process dynamical memory:    31.5 Mb

     Self-consistent Calculation

     iteration #  1     ecut=    30.00 Ry     beta=0.70
     Davidson diagonalization with overlap
     ethr =  1.00E-06,  avg # of iterations =  8.0

     total cpu time spent up to now is      222.5 secs

     total energy              =   -3373.64540537 Ry
     Harris-Foulkes estimate   =   -3374.95988185 Ry
     estimated scf accuracy    <       1.68115385 Ry

     iteration #  2     ecut=    30.00 Ry     beta=0.70
     Davidson diagonalization with overlap
     ethr =  5.70E-04,  avg # of iterations =  3.0

     total cpu time spent up to now is      223.0 secs

     total energy              =   -3372.84504393 Ry
     Harris-Foulkes estimate   =   -3375.90107268 Ry
     estimated scf accuracy    <       9.02078110 Ry

     iteration #  3     ecut=    30.00 Ry     beta=0.70
     Davidson diagonalization with overlap
     ethr =  5.70E-04,  avg # of iterations =  3.0

     total cpu time spent up to now is      223.5 secs

     total energy              =   -3374.27338827 Ry
     Harris-Foulkes estimate   =   -3374.70187633 Ry
     estimated scf accuracy    <       1.37408928 Ry

     iteration #  4     ecut=    30.00 Ry     beta=0.70
     Davidson diagonalization with overlap
     ethr =  4.66E-04,  avg # of iterations =  2.0

     total cpu time spent up to now is      223.8 secs

     total energy              =   -3374.45890510 Ry
     Harris-Foulkes estimate   =   -3374.52872414 Ry
     estimated scf accuracy    <       0.18108546 Ry

     iteration #  5     ecut=    30.00 Ry     beta=0.70
     Davidson diagonalization with overlap
     ethr =  6.14E-05,  avg # of iterations =  2.0

     total cpu time spent up to now is      224.1 secs

     total energy              =   -3374.48618799 Ry
     Harris-Foulkes estimate   =   -3374.50910702 Ry
     estimated scf accuracy    <       0.06754860 Ry

     iteration #  6     ecut=    30.00 Ry     beta=0.70
     Davidson diagonalization with overlap
     ethr =  2.29E-05,  avg # of iterations =  2.0

     total cpu time spent up to now is      224.5 secs

     total energy              =   -3374.49623164 Ry
     Harris-Foulkes estimate   =   -3374.50059748 Ry
     estimated scf accuracy    <       0.01152969 Ry

     iteration #  7     ecut=    30.00 Ry     beta=0.70
     Davidson diagonalization with overlap
     ethr =  3.91E-06,  avg # of iterations =  2.0

     total cpu time spent up to now is      224.8 secs

     total energy              =   -3374.49767249 Ry
     Harris-Foulkes estimate   =   -3374.49942508 Ry
     estimated scf accuracy    <       0.00526149 Ry

     iteration #  8     ecut=    30.00 Ry     beta=0.70
     Davidson diagonalization with overlap
     ethr =  1.78E-06,  avg # of iterations =  2.0

     total cpu time spent up to now is      225.1 secs

     total energy              =   -3374.49846577 Ry
     Harris-Foulkes estimate   =   -3374.49879998 Ry
     estimated scf accuracy    <       0.00100311 Ry

     iteration #  9     ecut=    30.00 Ry     beta=0.70
     Davidson diagonalization with overlap
     ethr =  3.40E-07,  avg # of iterations =  2.0

     total cpu time spent up to now is      225.5 secs

     total energy              =   -3374.49859555 Ry
     Harris-Foulkes estimate   =   -3374.49868413 Ry
     estimated scf accuracy    <       0.00025663 Ry

     iteration # 10     ecut=    30.00 Ry     beta=0.70
     Davidson diagonalization with overlap
     ethr =  8.70E-08,  avg # of iterations =  2.0

     total cpu time spent up to now is      225.8 secs

     total energy              =   -3374.49863400 Ry
     Harris-Foulkes estimate   =   -3374.49865985 Ry
     estimated scf accuracy    <       0.00008387 Ry

     iteration # 11     ecut=    30.00 Ry     beta=0.70
     Davidson diagonalization with overlap
     ethr =  2.84E-08,  avg # of iterations =  2.0

     total cpu time spent up to now is      226.1 secs

     total energy              =   -3374.49864394 Ry
     Harris-Foulkes estimate   =   -3374.49865065 Ry
     estimated scf accuracy    <       0.00001900 Ry

     iteration # 12     ecut=    30.00 Ry     beta=0.70
     Davidson diagonalization with overlap
     ethr =  6.44E-09,  avg # of iterations =  2.0

     total cpu time spent up to now is      226.5 secs

     End of self-consistent calculation

          k = 0.0000 0.0000 0.0000 (  1007 PWs)   bands (ev):

   -25.0516 -23.3176 -20.6135 -20.3237 -19.6854 -19.1300 -18.0742 -17.9895
   -17.6445 -16.8859 -16.5039 -15.7748 -15.6602 -15.4028 -15.1907 -15.1532
   -14.7517 -14.2784   0.3867   0.8389   1.5878   2.0812   2.5689   4.2843
     5.0111   5.5254   6.0951   6.3467   6.7636   7.5692   7.8495   7.9210
     8.3597   8.5644   9.2385   9.4229   9.6580  10.0755  10.2240  10.6769
    10.7538  10.7957  10.8444  11.6703  12.2362  12.2771  12.9575  12.9844
    13.3916  13.5892  13.6374  13.7724  14.4112  14.7336  14.9397  15.0189
    15.1975  15.4932  15.5691  15.7987  15.9405  16.4001  16.5100  16.7112
    17.1649  17.2407  17.3625  17.7342  18.1674  18.4890  18.8252  19.0225
    33.2809  36.0299  38.6472  40.1512  40.4143  40.5913  40.8750  41.4958
    41.8779  42.2515  42.4884  42.8162  43.1929  43.7470  43.8993  44.1284
    44.2902  45.0600  45.2164  45.4394  45.8222  45.9558  46.5033  46.6726
    46.8968  47.3945  47.4802  47.7694  48.0735  48.4434  48.6567  48.9013
    49.3399  49.5597  49.7833  50.1653  50.3004  50.5334  50.7691  50.8926
    51.0910  51.7364  51.8601  52.2916  52.3847  52.5406  52.8530  53.0506
    53.2244  53.6026  53.9004  53.9324  54.2944  54.6314  55.0384  55.5674
    55.7726  55.9883  56.2690  56.3277  56.4398  57.3992  57.6760  57.7395
    57.7838  58.2608  58.5722  58.6799  58.9575  59.4277  59.6367  59.8167
    60.0060  60.3421  60.4639  61.3797  61.5408  61.7059  61.8081  62.0562
    62.5701  62.6398  63.0409  63.2422  63.7126  64.1190  64.2544  64.5459
    64.8723  65.2393  65.2964  65.6275  65.9384  66.4585  66.7187  66.8784
    67.1198  67.8504  68.4986  69.0606  69.5024  69.9905  70.0779  71.3660
    72.0717  72.3638

     the Fermi energy is    61.3945 ev

!    total energy              =   -3374.49864166 Ry
     Harris-Foulkes estimate   =   -3374.49864879 Ry
     estimated scf accuracy    <       0.00000745 Ry

     The total energy is the sum of the following terms:

     one-electron contribution =     526.49227618 Ry
     hartree contribution      =     303.16958800 Ry
     xc contribution           =    -406.53097598 Ry
     ewald contribution        =   -3797.62559657 Ry
     smearing contrib. (-TS)   =      -0.00393329 Ry

     convergence has been achieved in  12 iterations

     Forces acting on atoms (cartesian axes, Ry/au):

     atom    1 type  1   force =    -1.20060764   -2.48510723    2.57982216
     atom    2 type  1   force =    -1.49036660   -1.03385963   -0.17409611
     atom    3 type  1   force =     0.87260419    0.63571647   -0.24150174
     atom    4 type  1   force =     1.61792444    1.46560531    0.45320681
     atom    5 type  1   force =    -1.10920305    0.04490818    0.36907862
     atom    6 type  1   force =    -0.78826112    0.84035019   -0.50007652
     atom    7 type  1   force =    -0.77105770   -0.77764217   -0.95747004
     atom    8 type  1   force =     0.89631062    0.94895425   -1.33999744
     atom    9 type  1   force =     1.08223945    0.98800752   -0.23059967
     atom   10 type  1   force =     1.34495685    0.74085811   -0.31901503
     atom   11 type  1   force =     0.92175806   -1.40766919   -1.44543331
     atom   12 type  1   force =    -0.21622350   -0.75868753    0.28765445
     atom   13 type  1   force =     1.07792727    0.71321241    0.67671667
     atom   14 type  1   force =     0.59587111   -1.17424000    0.28429004
     atom   15 type  1   force =    -0.16562023    1.76506583    0.66822412
     atom   16 type  1   force =    -2.23154670   -0.97332644   -1.70197496
     atom   17 type  1   force =    -0.87007663   -0.67320598   -0.31750200
     atom   18 type  1   force =     0.38195269   -0.55870478    0.23951563
     atom   19 type  2   force =    -0.07598314    0.13469581    0.18787805
     atom   20 type  3   force =     0.07595668    0.17946479    1.01758087
     atom   21 type  3   force =     0.05144495    1.38560409    0.46369941

     Total force =     8.005538     Total SCF correction =     0.029635

     number of scf cycles    =  34
     number of bfgs steps    =  26

     energy   old            =   -3373.6437460856 Ry
     energy   new            =   -3374.4986416589 Ry

     CASE: energy  _new < energy  _old

     new trust radius        =       0.8000000000 bohr
     new conv_thr            =       0.0000100000 Ry


ATOMIC_POSITIONS (angstrom)
Ru       1.559063402   0.763170487  -0.345706235
Ru       3.507981906   0.336914093   0.488104334
Ru       4.971749707   0.441010995  -0.900018285
Ru       0.300988136   4.978381519  -1.284812315
Ru       3.631499889   3.672695202  -0.368842555
Ru       6.089164403   3.095706852   1.676801413
Ru       2.944463486   7.288581339  -0.065313701
Ru       4.695855512   7.121370315   0.793638111
Ru       6.741221397   6.489072867   0.993562032
Ru       1.995585641  -0.412655565   1.035774666
Ru       2.815501097   1.266546474   1.607747481
Ru       5.713520827  -1.046676552   2.405561244
Ru       1.408534972   3.636390069   3.179394160
Ru       4.492677896   1.906099995   3.040363086
Ru       6.893530297   1.948065105   2.679078312
Ru       2.974906221   5.534664342   1.565463685
Ru       4.807171077   3.434572229   2.700858168
Ru       8.043130169   4.595578331   0.915504689
N        2.892381422   2.211763611   3.811408316
H        3.037127508   1.648410534   2.863733395
H        1.660945037   2.018169360   3.771906000



     Writing output data file Ruthenium4x3x2-NH2_RPBE.save
     NEW-OLD atomic charge density approx. for the potential

     Check: negative/imaginary core charge=   -0.000114    0.000000

     total cpu time spent up to now is      226.7 secs

     per-process dynamical memory:    31.5 Mb

     Self-consistent Calculation

     iteration #  1     ecut=    30.00 Ry     beta=0.70
     Davidson diagonalization with overlap
     ethr =  1.00E-06,  avg # of iterations = 12.0

     total cpu time spent up to now is      228.3 secs

     total energy              =   -3369.49539694 Ry
     Harris-Foulkes estimate   =   -3371.62546691 Ry
     estimated scf accuracy    <       2.67459922 Ry

     iteration #  2     ecut=    30.00 Ry     beta=0.70
     Davidson diagonalization with overlap
     ethr =  9.07E-04,  avg # of iterations =  3.0

     total cpu time spent up to now is      228.8 secs

     total energy              =   -3368.06109974 Ry
     Harris-Foulkes estimate   =   -3373.56428423 Ry
     estimated scf accuracy    <      17.03773501 Ry

     iteration #  3     ecut=    30.00 Ry     beta=0.70
     Davidson diagonalization with overlap
     ethr =  9.07E-04,  avg # of iterations =  3.0

     total cpu time spent up to now is      229.3 secs

     total energy              =   -3370.67960833 Ry
     Harris-Foulkes estimate   =   -3371.19033770 Ry
     estimated scf accuracy    <       1.51787569 Ry

     iteration #  4     ecut=    30.00 Ry     beta=0.70
     Davidson diagonalization with overlap
     ethr =  5.15E-04,  avg # of iterations =  2.0

     total cpu time spent up to now is      229.6 secs

     total energy              =   -3370.88071170 Ry
     Harris-Foulkes estimate   =   -3370.98264853 Ry
     estimated scf accuracy    <       0.27120355 Ry

     iteration #  5     ecut=    30.00 Ry     beta=0.70
     Davidson diagonalization with overlap
     ethr =  9.19E-05,  avg # of iterations =  2.0

     total cpu time spent up to now is      229.9 secs

     total energy              =   -3370.92342944 Ry
     Harris-Foulkes estimate   =   -3370.95678119 Ry
     estimated scf accuracy    <       0.10431302 Ry

     iteration #  6     ecut=    30.00 Ry     beta=0.70
     Davidson diagonalization with overlap
     ethr =  3.54E-05,  avg # of iterations =  2.0

     total cpu time spent up to now is      230.3 secs

     total energy              =   -3370.93601926 Ry
     Harris-Foulkes estimate   =   -3370.94465969 Ry
     estimated scf accuracy    <       0.02344261 Ry

     iteration #  7     ecut=    30.00 Ry     beta=0.70
     Davidson diagonalization with overlap
     ethr =  7.95E-06,  avg # of iterations =  2.0

     total cpu time spent up to now is      230.6 secs

     total energy              =   -3370.93927851 Ry
     Harris-Foulkes estimate   =   -3370.94277164 Ry
     estimated scf accuracy    <       0.01144999 Ry

     iteration #  8     ecut=    30.00 Ry     beta=0.70
     Davidson diagonalization with overlap
     ethr =  3.88E-06,  avg # of iterations =  2.0

     total cpu time spent up to now is      230.9 secs

     total energy              =   -3370.94083302 Ry
     Harris-Foulkes estimate   =   -3370.94136855 Ry
     estimated scf accuracy    <       0.00138307 Ry

     iteration #  9     ecut=    30.00 Ry     beta=0.70
     Davidson diagonalization with overlap
