
     Program PWSCF v.6.1 (svn rev. 13369) starts on 12Apr2021 at 17:45:18 

     This program is part of the open-source Quantum ESPRESSO suite
     for quantum simulation of materials; please cite
         "P. Giannozzi et al., J. Phys.:Condens. Matter 21 395502 (2009);
          URL http://www.quantum-espresso.org", 
     in publications or presentations arising from this work. More details at
     http://www.quantum-espresso.org/quote

     Parallel version (MPI), running on     1 processors
     Waiting for input...
     Reading input from standard input

     Current dimensions of program PWSCF are:
     Max number of different atomic species (ntypx) = 10
     Max number of k-points (npk) =  40000
     Max angular momentum in pseudopotentials (lmaxx) =  3

     IMPORTANT: XC functional enforced from input :
     Exchange-correlation      = REVPBE ( 1  4  4  4 0 0)
     Any further DFT definition will be discarded
     Please, verify this is what you really want


     Subspace diagonalization in iterative solution of the eigenvalue problem:
     a serial algorithm will be used

 
     G-vector sticks info
     --------------------
     sticks:   dense  smooth     PW     G-vecs:    dense   smooth      PW
     Sum         859     859    253                32547    32547    5107
 


     bravais-lattice index     =            4
     lattice parameter (alat)  =      10.2270  a.u.
     unit-cell volume          =    1465.7646 (a.u.)^3
     number of atoms/cell      =           21
     number of atomic types    =            3
     number of electrons       =       295.00
     number of Kohn-Sham states=          178
     kinetic-energy cutoff     =      30.0000  Ry
     charge density cutoff     =     120.0000  Ry
     convergence threshold     =      1.0E-08
     mixing beta               =       0.7000
     number of iterations used =            8  plain     mixing
     Exchange-correlation      = REVPBE ( 1  4  4  4 0 0)
     nstep                     =           50


     celldm(1)=  10.227000  celldm(2)=   1.000000  celldm(3)=   1.582300
     celldm(4)=   0.000000  celldm(5)=   0.000000  celldm(6)=   0.000000

     crystal axes: (cart. coord. in units of alat)
               a(1) = (   1.000000   0.000000   0.000000 )  
               a(2) = (  -0.500000   0.866025   0.000000 )  
               a(3) = (   0.000000   0.000000   1.582300 )  

     reciprocal axes: (cart. coord. in units 2 pi/alat)
               b(1) = (  1.000000  0.577350  0.000000 )  
               b(2) = (  0.000000  1.154701  0.000000 )  
               b(3) = (  0.000000  0.000000  0.631991 )  


     PseudoPot. # 1 for Ru read from file:
     /home/ajs0201/workQE/pseudo/Ru_ONCV_PBE-1.0.oncvpsp.upf
     MD5 check sum: be037bb81c227cfb9b1461a9f099f4bd
     Pseudo is Norm-conserving, Zval = 16.0
     Generated using ONCVPSP code by D. R. Hamann
     Using radial grid of 1458 points,  6 beta functions with: 
                l(1) =   0
                l(2) =   0
                l(3) =   1
                l(4) =   1
                l(5) =   2
                l(6) =   2

     PseudoPot. # 2 for N  read from file:
     /home/ajs0201/workQE/pseudo/N.oncvpsp.upf
     MD5 check sum: 563d65bfb082928f0c9eb97172f6c357
     Pseudo is Norm-conserving + core correction, Zval =  5.0
     Generated using ONCVPSP code by D. R. Hamann
     Using radial grid of 1058 points,  4 beta functions with: 
                l(1) =   0
                l(2) =   0
                l(3) =   1
                l(4) =   1

     PseudoPot. # 3 for H  read from file:
     /home/ajs0201/workQE/pseudo/H_ONCV_PBE-1.0.oncvpsp.upf
     MD5 check sum: 1790becc920ee074925cf490c71280fe
     Pseudo is Norm-conserving, Zval =  1.0
     Generated using ONCVPSP code by D. R. Hamann
     Using radial grid of 1166 points,  2 beta functions with: 
                l(1) =   0
                l(2) =   0

     atomic species   valence    mass     pseudopotential
        Ru            16.00   101.07000     Ru( 1.00)
        N              5.00    14.00670     N ( 1.00)
        H              1.00     1.00794     H ( 1.00)

     No symmetry found



   Cartesian axes

     site n.     atom                  positions (alat units)
         1           Ru  tau(   1) = (   0.0000000   0.2886700   0.0000000  )
         2           Ru  tau(   2) = (   0.4999912   0.2886700   0.0000000  )
         3           Ru  tau(   3) = (   0.9999824   0.2886700   0.0000000  )
         4           Ru  tau(   4) = (   0.2499956   0.7216751   0.0000000  )
         5           Ru  tau(   5) = (   0.7499868   0.7216751   0.0000000  )
         6           Ru  tau(   6) = (   1.2499780   0.7216751   0.0000000  )
         7           Ru  tau(   7) = (   0.4999912   1.1546802   0.0000000  )
         8           Ru  tau(   8) = (   0.9999824   1.1546802   0.0000000  )
         9           Ru  tau(   9) = (   1.4999736   1.1546802   0.0000000  )
        10           Ru  tau(  10) = (   0.0000000   0.0000000   0.3955638  )
        11           Ru  tau(  11) = (   0.4999912   0.0000000   0.3955638  )
        12           Ru  tau(  12) = (   0.9999824   0.0000000   0.3955638  )
        13           Ru  tau(  13) = (   0.2499956   0.4330051   0.3955638  )
        14           Ru  tau(  14) = (   0.7499868   0.4330051   0.3955638  )
        15           Ru  tau(  15) = (   1.2499780   0.4330051   0.3955638  )
        16           Ru  tau(  16) = (   0.4999912   0.8660102   0.3955638  )
        17           Ru  tau(  17) = (   0.9999824   0.8660102   0.3955638  )
        18           Ru  tau(  18) = (   1.4999736   0.8660102   0.3955638  )
        19           N   tau(  19) = (   0.4999912   0.2886700   0.6172976  )
        20           H   tau(  20) = (   0.4999912   0.1396572   0.7351127  )
        21           H   tau(  21) = (   0.4999912   0.4376829   0.7351127  )

     number of k points=     5  Marzari-Vanderbilt smearing, width (Ry)=  0.0100
                       cart. coord. in units 2pi/alat
        k(    1) = (   0.0000000   0.0000000   0.0000000), wk =   0.2222222
        k(    2) = (   0.0000000   0.3849002   0.0000000), wk =   0.4444444
        k(    3) = (   0.3333333   0.5773503   0.0000000), wk =   0.4444444
        k(    4) = (  -0.3333333   0.1924501   0.0000000), wk =   0.4444444
        k(    5) = (   0.3333333   0.1924501   0.0000000), wk =   0.4444444

     Dense  grid:    32547 G-vectors     FFT dimensions: (  36,  36,  60)

     Estimated max dynamical RAM per process >     167.07MB

     Check: negative/imaginary core charge=   -0.000073    0.000000

     Initial potential from superposition of free atoms

     starting charge  294.99003, renormalised to  295.00000
     Starting wfc are  186 randomized atomic wfcs

     total cpu time spent up to now is        2.6 secs

     per-process dynamical memory:    33.6 Mb

     Self-consistent Calculation

     iteration #  1     ecut=    30.00 Ry     beta=0.70
     Davidson diagonalization with overlap
     ethr =  1.00E-02,  avg # of iterations =  8.6

     total cpu time spent up to now is       26.2 secs

     total energy              =43069632.87378935 Ry
     Harris-Foulkes estimate   =43069478.27378874 Ry
     estimated scf accuracy    <     180.06396535 Ry

     iteration #  2     ecut=    30.00 Ry     beta=0.70
     Davidson diagonalization with overlap
     ethr =  1.00E-02,  avg # of iterations =  5.0

     total cpu time spent up to now is       41.7 secs

     total energy              =43069671.58841703 Ry
     Harris-Foulkes estimate   =43069235.46488081 Ry
     estimated scf accuracy    <    1341.16631361 Ry

     iteration #  3     ecut=    30.00 Ry     beta=0.70
     Davidson diagonalization with overlap
     ethr =  1.00E-02,  avg # of iterations =  4.0

     total cpu time spent up to now is       53.8 secs

     total energy              =43069499.42005324 Ry
     Harris-Foulkes estimate   =43069477.33509386 Ry
     estimated scf accuracy    <     107.39106271 Ry

     iteration #  4     ecut=    30.00 Ry     beta=0.70
     Davidson diagonalization with overlap
     ethr =  1.00E-02,  avg # of iterations =  3.0

     total cpu time spent up to now is       61.6 secs

     total energy              =43069498.72274628 Ry
     Harris-Foulkes estimate   =43069487.16342639 Ry
     estimated scf accuracy    <      76.83284116 Ry

     iteration #  5     ecut=    30.00 Ry     beta=0.70
     Davidson diagonalization with overlap
     ethr =  1.00E-02,  avg # of iterations =  2.6

     total cpu time spent up to now is       68.2 secs

     total energy              =43069499.69305905 Ry
     Harris-Foulkes estimate   =43069494.19734272 Ry
     estimated scf accuracy    <      47.37327340 Ry

     iteration #  6     ecut=    30.00 Ry     beta=0.70
     Davidson diagonalization with overlap
     ethr =  1.00E-02,  avg # of iterations =  1.8

     total cpu time spent up to now is       74.1 secs

     total energy              =43069501.09874318 Ry
     Harris-Foulkes estimate   =43069496.04122347 Ry
     estimated scf accuracy    <      45.59318539 Ry

     iteration #  7     ecut=    30.00 Ry     beta=0.70
     Davidson diagonalization with overlap
     ethr =  1.00E-02,  avg # of iterations =  1.0

     total cpu time spent up to now is       79.8 secs

     total energy              =43069501.73435683 Ry
     Harris-Foulkes estimate   =43069499.19561411 Ry
     estimated scf accuracy    <      20.51301887 Ry

     iteration #  8     ecut=    30.00 Ry     beta=0.70
     Davidson diagonalization with overlap
     ethr =  6.95E-03,  avg # of iterations =  6.2

     total cpu time spent up to now is       88.1 secs

     total energy              =43069501.00702010 Ry
     Harris-Foulkes estimate   =43069499.78340405 Ry
     estimated scf accuracy    <       4.44888226 Ry

     iteration #  9     ecut=    30.00 Ry     beta=0.70
     Davidson diagonalization with overlap
     ethr =  1.51E-03,  avg # of iterations =  5.4

     total cpu time spent up to now is       99.7 secs

     total energy              =43069500.54994830 Ry
     Harris-Foulkes estimate   =43069499.04965912 Ry
     estimated scf accuracy    <      18.72062807 Ry

     iteration # 10     ecut=    30.00 Ry     beta=0.70
     Davidson diagonalization with overlap
     ethr =  1.51E-03,  avg # of iterations =  1.8

     total cpu time spent up to now is      105.7 secs

     total energy              =43069501.14996564 Ry
     Harris-Foulkes estimate   =43069498.71464086 Ry
     estimated scf accuracy    <      33.95791805 Ry

     iteration # 11     ecut=    30.00 Ry     beta=0.70
     Davidson diagonalization with overlap
     ethr =  1.51E-03,  avg # of iterations =  2.0

     total cpu time spent up to now is      111.8 secs

     total energy              =43069500.02990925 Ry
     Harris-Foulkes estimate   =43069499.75820174 Ry
     estimated scf accuracy    <       1.29561723 Ry

     iteration # 12     ecut=    30.00 Ry     beta=0.70
     Davidson diagonalization with overlap
     ethr =  4.39E-04,  avg # of iterations =  2.4

     total cpu time spent up to now is      118.5 secs

     total energy              =43069499.91566052 Ry
     Harris-Foulkes estimate   =43069499.87906943 Ry
     estimated scf accuracy    <       0.16729540 Ry

     iteration # 13     ecut=    30.00 Ry     beta=0.70
     Davidson diagonalization with overlap
     ethr =  5.67E-05,  avg # of iterations =  6.4

     total cpu time spent up to now is      128.0 secs

     total energy              =43069499.91673017 Ry
     Harris-Foulkes estimate   =43069499.88436446 Ry
     estimated scf accuracy    <       0.24152286 Ry

     iteration # 14     ecut=    30.00 Ry     beta=0.70
     Davidson diagonalization with overlap
     ethr =  5.67E-05,  avg # of iterations =  2.0

     total cpu time spent up to now is      134.3 secs

     total energy              =43069499.91081377 Ry
     Harris-Foulkes estimate   =43069499.89606258 Ry
     estimated scf accuracy    <       0.06352454 Ry

     iteration # 15     ecut=    30.00 Ry     beta=0.70
     Davidson diagonalization with overlap
     ethr =  2.15E-05,  avg # of iterations =  2.6

     total cpu time spent up to now is      141.1 secs

     total energy              =43069499.90543556 Ry
     Harris-Foulkes estimate   =43069499.89941779 Ry
     estimated scf accuracy    <       0.03148906 Ry

     iteration # 16     ecut=    30.00 Ry     beta=0.70
     Davidson diagonalization with overlap
     ethr =  1.07E-05,  avg # of iterations =  4.4

     total cpu time spent up to now is      148.6 secs

     total energy              =43069499.90396468 Ry
     Harris-Foulkes estimate   =43069499.90101943 Ry
     estimated scf accuracy    <       0.01399313 Ry

     iteration # 17     ecut=    30.00 Ry     beta=0.70
     Davidson diagonalization with overlap
     ethr =  4.74E-06,  avg # of iterations =  4.4

     total cpu time spent up to now is      156.4 secs

     total energy              =43069499.90375953 Ry
     Harris-Foulkes estimate   =43069499.90083537 Ry
     estimated scf accuracy    <       0.01522756 Ry

     iteration # 18     ecut=    30.00 Ry     beta=0.70
     Davidson diagonalization with overlap
     ethr =  4.74E-06,  avg # of iterations =  3.2

     total cpu time spent up to now is      163.2 secs

     total energy              =43069499.90296890 Ry
     Harris-Foulkes estimate   =43069499.90176713 Ry
     estimated scf accuracy    <       0.00677843 Ry

     iteration # 19     ecut=    30.00 Ry     beta=0.70
     Davidson diagonalization with overlap
     ethr =  2.30E-06,  avg # of iterations =  4.6

     total cpu time spent up to now is      170.9 secs

     total energy              =43069499.90293592 Ry
     Harris-Foulkes estimate   =43069499.90147559 Ry
     estimated scf accuracy    <       0.01394357 Ry

     iteration # 20     ecut=    30.00 Ry     beta=0.70
     Davidson diagonalization with overlap
     ethr =  2.30E-06,  avg # of iterations =  1.6

     total cpu time spent up to now is      176.8 secs

     total energy              =43069499.90229066 Ry
     Harris-Foulkes estimate   =43069499.90220258 Ry
     estimated scf accuracy    <       0.00031133 Ry

     iteration # 21     ecut=    30.00 Ry     beta=0.70
     Davidson diagonalization with overlap
     ethr =  1.06E-07,  avg # of iterations =  4.4

     total cpu time spent up to now is      185.4 secs

     total energy              =43069499.90238088 Ry
     Harris-Foulkes estimate   =43069499.90198965 Ry
     estimated scf accuracy    <       0.00471648 Ry

     iteration # 22     ecut=    30.00 Ry     beta=0.70
     Davidson diagonalization with overlap
     ethr =  1.06E-07,  avg # of iterations =  3.0

     total cpu time spent up to now is      192.7 secs

     total energy              =43069499.90221323 Ry
     Harris-Foulkes estimate   =43069499.90217306 Ry
     estimated scf accuracy    <       0.00020185 Ry

     iteration # 23     ecut=    30.00 Ry     beta=0.70
     Davidson diagonalization with overlap
     ethr =  6.84E-08,  avg # of iterations =  2.6

     total cpu time spent up to now is      199.3 secs

     total energy              =43069499.90219692 Ry
     Harris-Foulkes estimate   =43069499.90218898 Ry
     estimated scf accuracy    <       0.00005067 Ry

     iteration # 24     ecut=    30.00 Ry     beta=0.70
     Davidson diagonalization with overlap
     ethr =  1.72E-08,  avg # of iterations =  2.2

     total cpu time spent up to now is      205.9 secs

     total energy              =43069499.90219495 Ry
     Harris-Foulkes estimate   =43069499.90218988 Ry
     estimated scf accuracy    <       0.00002642 Ry

     iteration # 25     ecut=    30.00 Ry     beta=0.70
     Davidson diagonalization with overlap
     ethr =  8.96E-09,  avg # of iterations =  2.0

     total cpu time spent up to now is      212.1 secs

     total energy              =43069499.90219268 Ry
     Harris-Foulkes estimate   =43069499.90219136 Ry
     estimated scf accuracy    <       0.00000659 Ry

     iteration # 26     ecut=    30.00 Ry     beta=0.70
     Davidson diagonalization with overlap
     ethr =  2.23E-09,  avg # of iterations =  3.0

     total cpu time spent up to now is      219.3 secs

     total energy              =43069499.90219247 Ry
     Harris-Foulkes estimate   =43069499.90219139 Ry
     estimated scf accuracy    <       0.00000609 Ry

     iteration # 27     ecut=    30.00 Ry     beta=0.70
     Davidson diagonalization with overlap
     ethr =  2.07E-09,  avg # of iterations =  2.8

     total cpu time spent up to now is      225.9 secs

     total energy              =43069499.90219203 Ry
     Harris-Foulkes estimate   =43069499.90219179 Ry
     estimated scf accuracy    <       0.00000095 Ry

     iteration # 28     ecut=    30.00 Ry     beta=0.70
     Davidson diagonalization with overlap
     ethr =  3.22E-10,  avg # of iterations =  3.2

     total cpu time spent up to now is      233.1 secs

     total energy              =43069499.90219196 Ry
     Harris-Foulkes estimate   =43069499.90219179 Ry
     estimated scf accuracy    <       0.00000083 Ry

     iteration # 29     ecut=    30.00 Ry     beta=0.70
     Davidson diagonalization with overlap
     ethr =  2.82E-10,  avg # of iterations =  2.0

     total cpu time spent up to now is      239.5 secs

     total energy              =43069499.90219191 Ry
     Harris-Foulkes estimate   =43069499.90219182 Ry
     estimated scf accuracy    <       0.00000055 Ry

     iteration # 30     ecut=    30.00 Ry     beta=0.70
     Davidson diagonalization with overlap
     ethr =  1.88E-10,  avg # of iterations =  2.0

     total cpu time spent up to now is      245.7 secs

     total energy              =43069499.90219187 Ry
     Harris-Foulkes estimate   =43069499.90219185 Ry
     estimated scf accuracy    <       0.00000011 Ry

     iteration # 31     ecut=    30.00 Ry     beta=0.70
     Davidson diagonalization with overlap
     ethr =  3.65E-11,  avg # of iterations =  2.2

     total cpu time spent up to now is      252.3 secs

     total energy              =43069499.90219187 Ry
     Harris-Foulkes estimate   =43069499.90219185 Ry
     estimated scf accuracy    <       0.00000028 Ry

     iteration # 32     ecut=    30.00 Ry     beta=0.70
     Davidson diagonalization with overlap
     ethr =  3.65E-11,  avg # of iterations =  2.0

     total cpu time spent up to now is      258.5 secs

     total energy              =43069499.90219187 Ry
     Harris-Foulkes estimate   =43069499.90219185 Ry
     estimated scf accuracy    <       0.00000019 Ry

     iteration # 33     ecut=    30.00 Ry     beta=0.70
     Davidson diagonalization with overlap
     ethr =  3.65E-11,  avg # of iterations =  2.0

     total cpu time spent up to now is      264.5 secs

     total energy              =43069499.90219186 Ry
     Harris-Foulkes estimate   =43069499.90219186 Ry
     estimated scf accuracy    <       0.00000003 Ry

     iteration # 34     ecut=    30.00 Ry     beta=0.70
     Davidson diagonalization with overlap
     ethr =  9.80E-12,  avg # of iterations =  2.0

     total cpu time spent up to now is      270.8 secs

     End of self-consistent calculation

          k = 0.0000 0.0000 0.0000 (  4031 PWs)   bands (ev):

  -319.8496-319.8300-319.7441-319.6834-319.5692-319.5031-308.3974-308.3578
  -271.9130-271.5415-271.1220-271.0936-270.8396-270.8082-270.6650-270.5718
  -270.3681-270.0070-134.9061-134.7941-134.4894-134.4298-114.3398-114.2202
  -114.2162-114.0913-113.9188-113.8588-113.7971-113.7188-113.7127-113.6094
  -113.3296-113.2606 -77.6961 -76.7946 -76.7140 -76.4719 -76.4020 -76.3370
   -76.0907 -76.0625 -75.9142 -75.6899 -75.1473 -74.9350 -74.7670 -74.6083
   -59.6746 -59.6146 -59.5278 -59.5089 -59.3212 -59.2921 -59.2819 -59.2180
   -59.1747 -59.1209 -59.0734 -58.9828 -58.9625 -58.8913 -58.7782 -58.7205
   -58.7004 -58.6409 -58.6141 -58.5418 -47.7219 -46.2648 -45.4171 -45.2664
   -45.0966 -44.8609 -44.7565 -44.5632 -44.2897 -44.2437 -44.0649 -43.3380
   -31.7429 -31.1316 -30.8488 -30.8092 -30.6767 -30.1581 -14.7493 -14.6894
   -14.4865 -14.3810 -14.2918 -14.0435  -9.8697  -9.0154  -6.4342  -3.9721
     5.3268   9.0985  11.1872  11.2700  13.5327  13.7188  15.1227  15.7033
    16.0951  16.5867  16.9801  17.3725  17.7558  18.5540  18.9575  20.4543
    20.7481  21.0661  21.8013  22.7598  22.8456  23.1172  23.2606  23.3524
    23.9607  24.3234  24.8249  25.0059  25.2307  25.3656  25.4531  25.7793
    26.1270  26.2708  26.6034  26.8011  26.8406  27.2113  27.3524  27.6888
    27.8255  27.9671  28.4505  28.5504  28.6598  28.7896  28.9159  29.0981
    29.1815  29.4154  29.4969  29.6958  29.7675  30.0470  30.1540  30.2178
    30.4472  30.4616  30.5225  30.6765  30.7097  30.8291  30.9526  30.9671
    31.0681  31.1812  31.4965  31.5398  31.6363  31.8787  31.9166  31.9669
    32.1243  32.2411  32.3350  32.4280  32.5822  32.6408  32.7041  32.8369
    33.0947  33.2897

          k = 0.0000 0.3849 0.0000 (  4082 PWs)   bands (ev):

  -319.9201-319.8504-319.7755-319.6961-319.6256-319.5455-308.4036-308.3636
  -272.7671-272.4978-272.1876-272.1400-271.9394-271.5799-271.1293-270.7831
  -270.6979-270.5018-134.9063-134.7943-134.4895-134.4301-114.3429-114.2263
  -114.2204-114.0944-113.9215-113.8623-113.8007-113.7213-113.7149-113.6114
  -113.3338-113.2645 -78.4752 -78.3457 -78.1148 -77.9889 -77.3271 -77.1815
   -77.0465 -76.8373 -76.4592 -76.2142 -75.8128 -75.4963 -75.4381 -75.2530
   -59.7499 -59.7006 -59.5993 -59.5623 -59.3641 -59.3296 -59.3070 -59.2904
   -59.2094 -59.1742 -59.0999 -59.0710 -59.0202 -58.9525 -58.9167 -58.8375
   -58.7884 -58.7308 -58.6412 -58.5758 -48.6512 -48.0053 -47.7157 -47.4881
   -47.2194 -46.4678 -45.5470 -44.7657 -44.6660 -44.4041 -44.3028 -44.0809
   -31.9690 -31.2323 -31.1256 -30.8963 -30.7554 -30.2817 -14.7862 -14.7311
   -14.5380 -14.3846 -14.2911 -14.0374 -13.1955 -10.5346  -6.4484  -4.2852
     5.2800   9.2818  10.0037  12.7022  13.4140  13.7355  15.0504  15.6554
    16.3141  16.4984  16.8043  17.2390  17.5557  18.4022  19.3379  20.1080
    20.7227  21.2743  21.9619  22.1962  22.4784  22.9412  23.1407  23.5298
    23.8094  24.0732  24.3493  24.8249  25.1069  25.3520  25.5836  25.7767
    26.1966  26.4202  26.5952  26.8826  27.1539  27.5237  27.6181  27.7901
    27.9754  28.0773  28.2137  28.2347  28.4071  28.5128  28.7199  28.8274
    28.9985  29.1058  29.2137  29.4855  29.6457  29.8679  30.0104  30.0788
    30.2405  30.3142  30.4626  30.5709  30.6300  30.6718  30.7801  30.8815
    31.0387  31.1007  31.1838  31.3041  31.3671  31.4898  31.6716  31.7475
    31.8181  31.9489  32.0413  32.3583  32.3985  32.5593  32.6671  32.8681
    33.0384  33.1967

          k = 0.3333 0.5774 0.0000 (  4071 PWs)   bands (ev):

  -319.8679-319.8427-319.7797-319.7201-319.5877-319.5285-308.4016-308.3621
  -272.1681-271.9663-271.8591-271.7817-271.3744-271.2657-271.0768-271.0288
  -270.7132-270.5533-134.9062-134.7942-134.4895-134.4300-114.3398-114.2222
  -114.2195-114.0915-113.9207-113.8621-113.7982-113.7190-113.7153-113.6126
  -113.3325-113.2636 -78.4540 -77.4852 -77.4288 -77.1406 -77.0738 -76.8710
   -76.8089 -76.6212 -76.5014 -76.3707 -76.1733 -75.6747 -75.1922 -74.6522
   -59.6789 -59.6170 -59.5677 -59.5369 -59.3409 -59.2942 -59.2480 -59.1889
   -59.1721 -59.1466 -59.1072 -59.0633 -58.9921 -58.9397 -58.9002 -58.8476
   -58.7288 -58.6757 -58.6305 -58.5886 -47.5130 -47.1599 -47.0072 -46.8160
   -46.2575 -46.0175 -45.6199 -45.3378 -44.8403 -44.3106 -44.2852 -44.0816
   -31.7709 -31.1266 -31.0526 -30.9903 -30.7996 -30.2189 -14.7858 -14.7307
   -14.5374 -14.3836 -14.2897 -14.0370 -11.4164 -10.6936  -6.5244  -4.1471
     5.2542   9.0606  10.1225  12.7549  13.2973  13.8864  15.4497  15.7694
    16.0740  16.4535  16.9834  17.1772  17.6828  18.3150  19.4321  20.0938
    20.5459  21.3706  21.6727  22.1656  22.6746  22.9902  23.4752  23.6075
    24.0840  24.4909  24.6578  24.8611  25.0917  25.1321  25.6419  25.7495
    25.8449  26.2609  26.7830  26.8713  27.1329  27.4339  27.5956  27.8847
    28.0369  28.1407  28.2315  28.5424  28.6385  28.7791  28.8448  28.9770
    29.1746  29.2700  29.4585  29.5944  29.6838  29.7637  29.9063  30.0867
    30.1654  30.3710  30.4769  30.5520  30.6248  30.7217  30.9061  30.9380
    31.0374  31.1247  31.2670  31.4046  31.5322  31.6893  31.7949  31.9193
    32.0431  32.1505  32.2046  32.4496  32.5633  32.7202  32.7881  32.9151
    33.0973  33.2344

          k =-0.3333 0.1925 0.0000 (  4082 PWs)   bands (ev):

  -319.8825-319.8705-319.7968-319.7360-319.5965-319.5288-308.4032-308.3634
  -272.4507-272.2306-272.0855-271.9654-271.7516-271.5469-271.4553-271.2964
  -270.8043-270.5896-134.9063-134.7943-134.4895-134.4300-114.3425-114.2220
  -114.2198-114.0941-113.9234-113.8646-113.8009-113.7218-113.7172-113.6139
  -113.3318-113.2629 -78.5393 -78.1907 -77.8161 -77.4539 -77.4328 -77.0970
   -76.9507 -76.7330 -76.5833 -76.3849 -76.0852 -76.0311 -75.9480 -74.7000
   -59.7025 -59.6604 -59.5773 -59.5325 -59.3634 -59.3382 -59.3187 -59.2701
   -59.2376 -59.2041 -59.1560 -59.1057 -59.0387 -58.9530 -58.9179 -58.8158
   -58.7448 -58.7249 -58.6467 -58.6129 -48.4616 -47.8556 -47.2371 -47.0239
   -46.5604 -46.3263 -46.1168 -45.8704 -44.9208 -44.3862 -44.3068 -44.0834
   -31.8853 -31.2248 -31.0970 -31.0295 -30.7702 -30.2530 -14.7862 -14.7320
   -14.5375 -14.3842 -14.2914 -14.0375 -12.5250 -11.1439  -6.6027  -4.1834
     5.2766   9.2222   9.9473  12.7604  13.3632  13.6168  15.3468  15.9127
    16.2031  16.4331  16.8302  17.0908  17.5828  18.6607  19.0105  19.9699
    20.8382  21.2286  21.7891  22.3842  22.7445  22.8771  23.1825  23.3846
    23.8907  24.1525  24.2633  24.8654  24.9984  25.4465  25.5784  25.9562
    26.1150  26.4019  26.5513  26.9533  27.2099  27.4232  27.5733  27.7048
    27.9079  28.0869  28.3344  28.3669  28.4730  28.5849  28.6729  28.7969
    28.9245  29.1998  29.4177  29.5536  29.6916  29.7866  29.8992  30.0111
    30.1908  30.3192  30.3735  30.4603  30.6108  30.6614  30.7328  30.9066
    31.0117  31.1201  31.2537  31.3226  31.3857  31.5224  31.5691  31.7775
    31.8568  31.9449  32.0644  32.1288  32.2907  32.4705  32.6909  32.8807
    33.1009  33.1608

          k = 0.3333 0.1925 0.0000 (  4082 PWs)   bands (ev):

  -319.8771-319.8609-319.7935-319.7373-319.6036-319.5365-308.4032-308.3636
  -272.4362-272.2154-272.0325-271.9995-271.7372-271.5509-271.4483-271.2663
  -270.7745-270.6158-134.9063-134.7943-134.4895-134.4301-114.3425-114.2227
  -114.2201-114.0941-113.9223-113.8616-113.7997-113.7224-113.7160-113.6136
  -113.3341-113.2654 -78.5261 -78.1399 -77.8041 -77.4471 -77.4219 -77.0338
   -76.9456 -76.7573 -76.5918 -76.3317 -76.1251 -76.0148 -75.9040 -74.6869
   -59.7099 -59.6909 -59.5770 -59.5613 -59.4242 -59.3303 -59.3146 -59.2700
   -59.1871 -59.1533 -59.0983 -59.0760 -59.0293 -58.9433 -58.8965 -58.8062
   -58.7532 -58.7103 -58.6724 -58.6549 -48.4166 -47.7758 -47.1419 -47.0344
   -46.5435 -46.3290 -46.0681 -45.8266 -44.8842 -44.4609 -44.2952 -44.0749
   -31.8843 -31.1861 -31.0757 -31.0124 -30.8566 -30.2600 -14.7484 -14.6891
   -14.4868 -14.3808 -14.2898 -14.0437 -12.4225 -11.0837  -6.7104  -4.2564
     5.2649   8.8425  11.2761  11.3542  13.5969  13.8204  15.2048  15.7739
    16.1236  16.3899  16.8561  17.1502  17.5898  18.8984  19.2891  20.4534
    20.9601  21.3420  21.8903  22.3697  22.8351  23.1380  23.3438  23.6760
    23.9163  24.1787  24.4450  24.6041  24.9131  25.4083  25.6024  25.8876
    25.9999  26.2740  26.6434  26.7748  27.0889  27.3521  27.5717  27.6509
    27.8245  27.9848  28.1576  28.2752  28.3367  28.6126  28.6949  28.8308
    28.9632  29.0388  29.3332  29.4470  29.5895  29.6636  29.9193  30.0830
    30.1803  30.2920  30.5445  30.7112  30.7578  30.8434  31.0111  31.0561
    31.0970  31.2768  31.3776  31.4745  31.6048  31.8046  31.8637  31.9077
    32.1267  32.2151  32.3716  32.4434  32.5317  32.6522  32.8195  32.9350
    33.0621  33.2321

     the Fermi energy is    29.5403 ev

!    total energy              =43069499.90219186 Ry
     Harris-Foulkes estimate   =43069499.90219186 Ry
     estimated scf accuracy    <          5.7E-09 Ry

     The total energy is the sum of the following terms:

     one-electron contribution =  -12934.41445786 Ry
     hartree contribution      =    6117.19552285 Ry
     xc contribution           =    -488.72142557 Ry
     ewald contribution        =43076805.84422375 Ry
     smearing contrib. (-TS)   =      -0.00167130 Ry

     convergence has been achieved in  34 iterations

     Forces acting on atoms (cartesian axes, Ry/au):

     atom    1 type  1   force = ****************************   -0.12670942
     atom    2 type  1   force = ****************************    0.08594780
     atom    3 type  1   force = ****************************   -0.12671496
     atom    4 type  1   force = **************   -0.00256234    0.04031221
     atom    5 type  1   force =     0.02821140   -0.03883354   -0.22021162
     atom    6 type  1   force = **************   -0.00267083    0.04019845
     atom    7 type  1   force = ****************************   -0.12656737
     atom    8 type  1   force = ****************************    0.08584286
     atom    9 type  1   force = ****************************   -0.12657272
     atom   10 type  1   force = ****************************    0.11927051
     atom   11 type  1   force = ****************************   -0.18591468
     atom   12 type  1   force = ****************************    0.11925590
     atom   13 type  1   force = **************    0.05274631   -0.08744539
     atom   14 type  1   force =     0.11589455    0.11346094    0.12378159
     atom   15 type  1   force = **************    0.05254050   -0.08750317
     atom   16 type  1   force = ****************************    0.11938826
     atom   17 type  1   force = ****************************   -0.18593535
     atom   18 type  1   force = ****************************    0.11937349
     atom   19 type  2   force =    -0.01516211    0.08230773    0.17473657
     atom   20 type  3   force =     0.00288192   -0.09404871    0.13897787
     atom   21 type  3   force =     0.03565900    0.11457596    0.10648920

     Total force = ************     Total SCF correction =     0.000266

     BFGS Geometry Optimization

     number of scf cycles    =   1
     number of bfgs steps    =   0

     energy   new            = ****************** Ry

     new trust radius        =       0.5000000000 bohr
     new conv_thr            =       0.0000000100 Ry


ATOMIC_POSITIONS (angstrom)
Ru       0.229140489   1.694546330  -0.000000000
Ru       2.769952898   1.673195234   0.000000000
Ru       5.283693502   1.784138378  -0.000000000
Ru       1.481056498   3.905630230   0.000000000
Ru       4.058850000   3.905630230  -0.000000000
Ru       6.636643502   3.905630230   0.000000000
Ru       2.834006498   6.027122082  -0.000000000
Ru       5.347747102   6.138065226   0.000000000
Ru       7.888559511   6.116714130  -0.000000000
Ru       0.229140489   0.132294240   2.140750000
Ru       2.769952898   0.110943144   2.140750000
Ru       5.283693502   0.221886288   2.140750000
Ru       1.481056498   2.343378140   2.140750000
Ru       4.058850000   2.343378140   2.140750000
Ru       6.636643502   2.343378140   2.140750000
Ru       2.834006498   4.464869992   2.140750000
Ru       5.347747102   4.575813136   2.140750000
Ru       7.888559511   4.554462040   2.140750000
N        2.705900000   1.562252090   3.340750000
H        2.705900000   0.755810090   3.978353000
H        2.705900000   2.368694090   3.978353000



     Writing output data file Ruthenium4x3x2-NH2_RPBE.save
     NEW-OLD atomic charge density approx. for the potential

     Check: negative/imaginary core charge=   -0.000073    0.000000

     total cpu time spent up to now is      272.1 secs

     per-process dynamical memory:    34.1 Mb

     Self-consistent Calculation

     iteration #  1     ecut=    30.00 Ry     beta=0.70
     Davidson diagonalization with overlap
     ethr =  1.00E-06,  avg # of iterations = 15.6

     total cpu time spent up to now is      302.7 secs

     total energy              =    2909.71819510 Ry
     Harris-Foulkes estimate   =    2887.86002586 Ry
     estimated scf accuracy    <      26.66655956 Ry

     iteration #  2     ecut=    30.00 Ry     beta=0.70
     Davidson diagonalization with overlap
     ethr =  9.04E-03,  avg # of iterations =  4.0

     total cpu time spent up to now is      312.8 secs

     total energy              =    2918.62945874 Ry
     Harris-Foulkes estimate   =    2857.96361200 Ry
     estimated scf accuracy    <     200.57051009 Ry

     iteration #  3     ecut=    30.00 Ry     beta=0.70
     Davidson diagonalization with overlap
     ethr =  9.04E-03,  avg # of iterations =  5.0

     total cpu time spent up to now is      325.0 secs

     total energy              =    2903.36217465 Ry
     Harris-Foulkes estimate   =    2886.71041977 Ry
     estimated scf accuracy    <      92.92954135 Ry

     iteration #  4     ecut=    30.00 Ry     beta=0.70
     Davidson diagonalization with overlap
     ethr =  9.04E-03,  avg # of iterations =  4.0

     total cpu time spent up to now is      333.5 secs

     total energy              =    2897.44200769 Ry
     Harris-Foulkes estimate   =    2891.05051945 Ry
     estimated scf accuracy    <      41.33021662 Ry

     iteration #  5     ecut=    30.00 Ry     beta=0.70
     Davidson diagonalization with overlap
     ethr =  9.04E-03,  avg # of iterations =  3.0

     total cpu time spent up to now is      340.3 secs

     total energy              =    2895.45481420 Ry
     Harris-Foulkes estimate   =    2893.03029112 Ry
     estimated scf accuracy    <      11.26968824 Ry

     iteration #  6     ecut=    30.00 Ry     beta=0.70
     Davidson diagonalization with overlap
     ethr =  3.82E-03,  avg # of iterations =  2.0

     total cpu time spent up to now is      346.7 secs

     total energy              =    2894.30551576 Ry
     Harris-Foulkes estimate   =    2893.83941286 Ry
     estimated scf accuracy    <       1.80599401 Ry

     iteration #  7     ecut=    30.00 Ry     beta=0.70
     Davidson diagonalization with overlap
     ethr =  6.12E-04,  avg # of iterations =  4.8

     total cpu time spent up to now is      354.9 secs

     total energy              =    2894.23347677 Ry
     Harris-Foulkes estimate   =    2893.93483661 Ry
     estimated scf accuracy    <       1.10376705 Ry

     iteration #  8     ecut=    30.00 Ry     beta=0.70
     Davidson diagonalization with overlap
     ethr =  3.74E-04,  avg # of iterations =  3.8

     total cpu time spent up to now is      362.2 secs

     total energy              =    2894.13901104 Ry
     Harris-Foulkes estimate   =    2893.99378392 Ry
     estimated scf accuracy    <       0.65691770 Ry

     iteration #  9     ecut=    30.00 Ry     beta=0.70
     Davidson diagonalization with overlap
     ethr =  2.23E-04,  avg # of iterations =  3.2

     total cpu time spent up to now is      369.2 secs

     total energy              =    2894.11173192 Ry
     Harris-Foulkes estimate   =    2894.00471232 Ry
     estimated scf accuracy    <       0.57246209 Ry

     iteration # 10     ecut=    30.00 Ry     beta=0.70
     Davidson diagonalization with overlap
     ethr =  1.94E-04,  avg # of iterations =  1.6

     total cpu time spent up to now is      375.1 secs

     total energy              =    2894.06183269 Ry
     Harris-Foulkes estimate   =    2894.05164961 Ry
     estimated scf accuracy    <       0.03271141 Ry

     iteration # 11     ecut=    30.00 Ry     beta=0.70
     Davidson diagonalization with overlap
     ethr =  1.11E-05,  avg # of iterations =  6.6

     total cpu time spent up to now is      385.6 secs

     total energy              =    2894.06063157 Ry
     Harris-Foulkes estimate   =    2894.04756515 Ry
     estimated scf accuracy    <       0.06781673 Ry

     iteration # 12     ecut=    30.00 Ry     beta=0.70
     Davidson diagonalization with overlap
     ethr =  1.11E-05,  avg # of iterations =  2.4

     total cpu time spent up to now is      392.2 secs

     total energy              =    2894.05519332 Ry
     Harris-Foulkes estimate   =    2894.05315460 Ry
     estimated scf accuracy    <       0.00720516 Ry

     iteration # 13     ecut=    30.00 Ry     beta=0.70
     Davidson diagonalization with overlap
     ethr =  2.44E-06,  avg # of iterations =  5.6

     total cpu time spent up to now is      401.2 secs

     total energy              =    2894.05439414 Ry
     Harris-Foulkes estimate   =    2894.05360548 Ry
     estimated scf accuracy    <       0.00355940 Ry

     iteration # 14     ecut=    30.00 Ry     beta=0.70
     Davidson diagonalization with overlap
     ethr =  1.21E-06,  avg # of iterations =  2.6

     total cpu time spent up to now is      408.0 secs

     total energy              =    2894.05448989 Ry
     Harris-Foulkes estimate   =    2894.05355139 Ry
     estimated scf accuracy    <       0.00557823 Ry

     iteration # 15     ecut=    30.00 Ry     beta=0.70
     Davidson diagonalization with overlap
     ethr =  1.21E-06,  avg # of iterations =  2.6

     total cpu time spent up to now is      414.4 secs

     total energy              =    2894.05420922 Ry
     Harris-Foulkes estimate   =    2894.05369180 Ry
     estimated scf accuracy    <       0.00486649 Ry

     iteration # 16     ecut=    30.00 Ry     beta=0.70
     Davidson diagonalization with overlap
     ethr =  1.21E-06,  avg # of iterations =  1.0

     total cpu time spent up to now is      420.0 secs

     total energy              =    2894.05397830 Ry
     Harris-Foulkes estimate   =    2894.05391362 Ry
     estimated scf accuracy    <       0.00021104 Ry

     iteration # 17     ecut=    30.00 Ry     beta=0.70
     Davidson diagonalization with overlap
     ethr =  7.15E-08,  avg # of iterations =  3.0

     total cpu time spent up to now is      427.3 secs

     total energy              =    2894.05396797 Ry
     Harris-Foulkes estimate   =    2894.05389673 Ry
     estimated scf accuracy    <       0.00034280 Ry

     iteration # 18     ecut=    30.00 Ry     beta=0.70
     Davidson diagonalization with overlap
     ethr =  7.15E-08,  avg # of iterations =  2.0

     total cpu time spent up to now is      433.7 secs

     total energy              =    2894.05393951 Ry
     Harris-Foulkes estimate   =    2894.05392530 Ry
     estimated scf accuracy    <       0.00005024 Ry

     iteration # 19     ecut=    30.00 Ry     beta=0.70
     Davidson diagonalization with overlap
     ethr =  1.70E-08,  avg # of iterations =  2.0

     total cpu time spent up to now is      440.3 secs

     total energy              =    2894.05393468 Ry
     Harris-Foulkes estimate   =    2894.05392698 Ry
     estimated scf accuracy    <       0.00003979 Ry

     iteration # 20     ecut=    30.00 Ry     beta=0.70
     Davidson diagonalization with overlap
     ethr =  1.35E-08,  avg # of iterations =  2.0

     total cpu time spent up to now is      446.6 secs

     total energy              =    2894.05393177 Ry
     Harris-Foulkes estimate   =    2894.05392953 Ry
     estimated scf accuracy    <       0.00000669 Ry

     iteration # 21     ecut=    30.00 Ry     beta=0.70
     Davidson diagonalization with overlap
     ethr =  2.27E-09,  avg # of iterations =  2.2

     total cpu time spent up to now is      453.5 secs

     total energy              =    2894.05393144 Ry
     Harris-Foulkes estimate   =    2894.05392969 Ry
     estimated scf accuracy    <       0.00000724 Ry

     iteration # 22     ecut=    30.00 Ry     beta=0.70
     Davidson diagonalization with overlap
     ethr =  2.27E-09,  avg # of iterations =  2.0

     total cpu time spent up to now is      459.9 secs

     total energy              =    2894.05393078 Ry
     Harris-Foulkes estimate   =    2894.05393010 Ry
     estimated scf accuracy    <       0.00000281 Ry

     iteration # 23     ecut=    30.00 Ry     beta=0.70
     Davidson diagonalization with overlap
     ethr =  9.53E-10,  avg # of iterations =  2.0

     total cpu time spent up to now is      466.4 secs

     total energy              =    2894.05393058 Ry
     Harris-Foulkes estimate   =    2894.05393024 Ry
     estimated scf accuracy    <       0.00000183 Ry

     iteration # 24     ecut=    30.00 Ry     beta=0.70
     Davidson diagonalization with overlap
     ethr =  6.21E-10,  avg # of iterations =  1.8

     total cpu time spent up to now is      472.3 secs

     total energy              =    2894.05393046 Ry
     Harris-Foulkes estimate   =    2894.05393038 Ry
     estimated scf accuracy    <       0.00000027 Ry

     iteration # 25     ecut=    30.00 Ry     beta=0.70
     Davidson diagonalization with overlap
     ethr =  9.31E-11,  avg # of iterations =  2.8

     total cpu time spent up to now is      479.3 secs

     total energy              =    2894.05393050 Ry
     Harris-Foulkes estimate   =    2894.05393030 Ry
     estimated scf accuracy    <       0.00000200 Ry

     iteration # 26     ecut=    30.00 Ry     beta=0.70
     Davidson diagonalization with overlap
     ethr =  9.31E-11,  avg # of iterations =  2.4

     total cpu time spent up to now is      486.0 secs

     total energy              =    2894.05393044 Ry
     Harris-Foulkes estimate   =    2894.05393035 Ry
     estimated scf accuracy    <       0.00000043 Ry

     iteration # 27     ecut=    30.00 Ry     beta=0.70
     Davidson diagonalization with overlap
     ethr =  9.31E-11,  avg # of iterations =  2.0

     total cpu time spent up to now is      492.4 secs

     total energy              =    2894.05393040 Ry
     Harris-Foulkes estimate   =    2894.05393039 Ry
     estimated scf accuracy    <       0.00000007 Ry

     iteration # 28     ecut=    30.00 Ry     beta=0.70
     Davidson diagonalization with overlap
     ethr =  2.34E-11,  avg # of iterations =  2.0

     total cpu time spent up to now is      498.8 secs

     total energy              =    2894.05393040 Ry
     Harris-Foulkes estimate   =    2894.05393039 Ry
     estimated scf accuracy    <       0.00000002 Ry

     iteration # 29     ecut=    30.00 Ry     beta=0.70
     Davidson diagonalization with overlap
     ethr =  6.58E-12,  avg # of iterations =  2.0

     total cpu time spent up to now is      505.5 secs

     total energy              =    2894.05393039 Ry
     Harris-Foulkes estimate   =    2894.05393039 Ry
     estimated scf accuracy    <       0.00000002 Ry

     iteration # 30     ecut=    30.00 Ry     beta=0.70
     Davidson diagonalization with overlap
     ethr =  6.58E-12,  avg # of iterations =  2.0

     total cpu time spent up to now is      511.7 secs

     End of self-consistent calculation

          k = 0.0000 0.0000 0.0000 (  4031 PWs)   bands (ev):

  -286.5244-286.4940-271.7036-271.6477-222.3005-222.2280-220.6774-220.6430
  -164.4636-164.4242-160.1149-160.0550-159.8788-159.7672-147.3928-147.3344
  -136.5393-136.4703-131.4859-131.2885-131.0946-130.9381-108.2849-108.1207
  -108.0399-107.9907-107.8367-107.7338-107.6884-107.5958 -96.1343 -95.9401
   -95.7979 -95.6308 -75.2441 -75.0902 -71.9723 -71.8546 -70.7783 -70.7108
   -70.2695 -70.1415 -64.4872 -64.2937 -56.1727 -56.1245 -55.7145 -55.5084
   -50.5181 -50.3796 -49.8448 -49.8200 -49.6891 -49.6606 -49.4383 -49.3850
   -49.2522 -49.2402 -45.0969 -45.0492 -44.9789 -44.8743 -44.7281 -44.6834
   -44.6359 -44.5239 -43.6535 -43.5595 -43.4280 -43.4133 -43.3033 -43.1892
   -28.8301 -28.3865 -28.0274 -27.9098 -22.8783 -22.3535 -14.1017 -13.9524
   -13.8036 -13.7919 -13.7185 -13.4381  -5.5342  -5.4563  -1.0235   0.3327
     0.5974   1.6081   2.1721   3.9976   5.3004   6.2722   6.6947   8.0305
     8.3277   8.8062   9.5908  10.1983  12.8423  13.2841  13.6613  13.8428
    14.2865  14.6643  15.3122  16.2768  17.4599  18.3888  18.8812  20.1851
    20.3064  21.1703  21.5302  22.1555  22.4590  22.8128  22.9992  23.1760
    23.5969  24.0320  24.1119  24.4529  24.5071  24.7440  24.9163  25.3256
    25.4682  25.6017  26.1326  26.4184  26.4650  26.6306  26.6829  26.9699
    27.0877  27.4431  27.6994  27.9698  28.1130  28.2372  28.5300  28.5675
    28.8369  29.0298  29.3114  29.3829  29.5454  29.7657  29.8504  30.0132
    30.1583  30.4787  30.7442  30.8144  31.0155  31.1311  31.1541  31.5464
    31.8101  32.1152  32.3794  32.7306  32.8462  33.0132  33.4358  33.5419
    33.6710  33.6939  34.1518  34.1618  34.4467  34.4761  34.8551  35.1428
    35.2370  35.4902

          k = 0.0000 0.3849 0.0000 (  4082 PWs)   bands (ev):

  -286.5575-286.5155-271.8615-271.6542-222.5095-222.3761-220.8201-220.6977
  -165.1213-164.6643-160.2669-160.1387-159.9702-159.8058-147.5525-147.4375
  -136.9042-136.6478-131.4865-131.2891-131.0950-130.9384-108.2890-108.1262
  -108.0435-107.9959-107.8416-107.7410-107.6941-107.6010 -96.1478 -95.9531
   -95.8012 -95.6339 -76.0611 -75.1354 -72.7707 -72.2302 -72.0957 -71.5818
   -70.8355 -70.2183 -64.9214 -64.5769 -56.5134 -56.3215 -56.1851 -56.0221
   -50.7739 -50.2747 -49.9000 -49.8703 -49.6969 -49.6870 -49.5707 -49.4385
   -49.3834 -49.3015 -45.1193 -45.0677 -44.9881 -44.8940 -44.7908 -44.7188
   -44.6726 -44.5311 -43.7061 -43.5485 -43.4909 -43.4338 -43.3229 -43.2161
   -29.0992 -28.7812 -28.6516 -27.8152 -23.6464 -22.5722 -14.1135 -13.9907
   -13.8468 -13.7995 -13.7195 -13.4436  -6.5677  -5.8428  -1.1071  -0.1047
     0.8046   1.1956   2.3102   3.5771   4.9821   5.7319   6.2638   7.7357
     8.2609   8.4553  10.0658  10.5622  12.5234  12.7194  13.3527  13.9329
    14.5744  15.1455  16.2768  16.4511  17.6274  18.6923  18.9927  19.3671
    19.7732  20.2446  20.4359  20.9781  21.9467  22.5443  22.9512  23.0886
    23.4039  23.6053  23.7458  24.0937  24.2955  24.5004  24.8275  25.1085
    25.1933  25.5010  25.7717  26.1188  26.5234  26.8323  26.9552  27.1341
    27.4742  27.7021  27.9387  28.1374  28.2707  28.4641  28.7247  28.8455
    28.9718  29.1390  29.3585  29.5135  29.6750  29.8458  30.0531  30.2150
    30.3996  30.5560  30.7992  30.9574  31.1174  31.3188  31.5493  31.6578
    31.8691  32.0025  32.2846  32.4482  32.6582  32.8537  33.0263  33.3337
    33.3986  33.7144  33.8671  34.1274  34.2672  34.5075  34.5818  34.8050
    34.9873  35.0970

          k = 0.3333 0.5774 0.0000 (  4071 PWs)   bands (ev):

  -286.5524-286.5220-271.6590-271.6272-222.4487-222.3910-220.8230-220.7764
  -164.8100-164.7113-159.9778-159.9287-159.8806-159.8177-147.5625-147.4736
  -136.8765-136.7620-131.4863-131.2889-131.0951-130.9385-108.2836-108.1257
  -108.0390-107.9953-107.8364-107.7380-107.6912-107.5970 -96.1441 -95.9498
   -95.8081 -95.6410 -75.1293 -75.0509 -72.1769 -72.1336 -71.8032 -71.5193
   -71.3712 -71.1040 -64.5049 -64.1219 -56.5001 -56.4447 -56.2668 -56.0225
   -50.4570 -50.3309 -49.9074 -49.7979 -49.7213 -49.6576 -49.4699 -49.3759
   -49.3248 -49.2615 -45.1100 -45.0390 -44.9931 -44.8692 -44.7839 -44.6956
   -44.6727 -44.5223 -43.6888 -43.5394 -43.4851 -43.4143 -43.3575 -43.2406
   -28.5739 -28.4552 -28.2133 -27.8975 -23.1533 -22.4333 -14.1086 -13.9881
   -13.8422 -13.7966 -13.7175 -13.4425  -5.9779  -5.7937  -1.1070   0.1978
     0.9073   1.2598   2.2365   3.8857   4.8185   5.8750   6.2129   7.2799
     8.3600   8.6647   9.7419  10.8653  12.3431  13.1571  13.6217  14.3976
    14.5491  15.6590  16.5247  17.0407  17.6872  18.0446  18.3987  19.1758
    19.9609  20.6753  20.8128  21.2167  21.5168  22.2704  22.7187  23.1450
    23.2908  23.3996  23.6726  24.0476  24.1992  24.4876  24.7876  25.1536
    25.4198  25.8006  26.2337  26.3882  26.6836  26.9789  27.1565  27.3925
    27.6784  27.8481  28.0215  28.1392  28.4151  28.6369  28.8393  29.0621
    29.1520  29.2963  29.5528  29.7253  29.8345  29.9963  30.1793  30.3134
    30.5023  30.6009  30.7253  30.9239  31.2376  31.4114  31.5314  31.6395
    31.8096  32.0139  32.1594  32.3023  32.4789  32.6873  32.7906  33.1139
    33.1632  33.3876  33.6671  33.9202  34.0975  34.2010  34.3222  34.4596
    34.7419  34.9361

          k =-0.3333 0.1925 0.0000 (  4082 PWs)   bands (ev):

  -286.5520-286.5207-271.8124-271.7019-222.4897-222.3895-220.7807-220.7411
  -164.9171-164.8620-160.1676-160.1096-160.0001-159.9021-147.5368-147.4523
  -136.8213-136.7295-131.4862-131.2888-131.0952-130.9387-108.2887-108.1280
  -108.0440-107.9978-107.8409-107.7392-107.6933-107.6006 -96.1371 -95.9428
   -95.8115 -95.6445 -75.8490 -75.2684 -72.5122 -72.4106 -72.0225 -71.6560
   -70.7976 -70.3610 -65.0601 -64.4402 -56.3838 -56.3316 -56.2096 -56.1252
   -50.6151 -50.4172 -49.9431 -49.8658 -49.7639 -49.7199 -49.4951 -49.4359
   -49.3399 -49.2892 -45.1121 -45.0613 -44.9902 -44.8887 -44.7885 -44.7036
   -44.6928 -44.5487 -43.6789 -43.5617 -43.4442 -43.4179 -43.3597 -43.2546
   -29.0314 -28.6376 -28.5732 -28.1039 -23.4027 -22.8213 -14.1119 -13.9928
   -13.8461 -13.7977 -13.7213 -13.4436  -6.2262  -6.1478  -1.1140   0.3195
     0.4797   1.3584   2.0165   3.7048   5.0001   5.9174   6.0899   7.6389
     7.9602   8.7337   9.5502  11.2443  12.4127  12.7378  13.2031  13.9011
    14.8539  15.4862  15.9687  16.3230  17.9747  18.4025  19.0433  19.2452
    19.7348  20.2311  20.7646  21.2470  21.6841  22.2024  22.9512  23.0656
    23.3163  23.4605  23.6829  23.9299  24.0638  24.5873  24.8461  25.0049
    25.2291  25.8517  26.1116  26.4499  26.5955  26.7841  26.9491  27.3065
    27.4817  27.6073  27.9501  28.1252  28.4656  28.5786  28.6952  28.8652
    28.9686  28.9993  29.3237  29.6199  29.6991  29.9038  30.0584  30.2730
    30.3974  30.6574  30.7517  30.8441  30.9774  31.3279  31.5292  31.5861
    31.6719  31.8799  32.0990  32.4375  32.7575  32.8609  32.9777  33.2342
    33.3943  33.5649  33.7804  33.9969  34.2541  34.4678  34.6043  34.6697
    34.9594  35.0644

          k = 0.3333 0.1925 0.0000 (  4082 PWs)   bands (ev):

  -286.5513-286.5192-271.8056-271.6998-222.3828-222.3171-220.8714-220.8175
  -164.8856-164.8286-160.2323-160.1019-160.0577-159.8684-147.5387-147.4685
  -136.8397-136.6994-131.4864-131.2891-131.0952-130.9386-108.2887-108.1252
  -108.0438-107.9951-107.8411-107.7385-107.6929-107.6003 -96.1473 -95.9528
   -95.8114 -95.6444 -75.7918 -75.2426 -72.5181 -72.3433 -71.8027 -71.5586
   -71.1140 -70.9370 -64.5602 -64.2406 -56.6867 -56.5342 -55.7232 -55.6096
   -50.8855 -50.5635 -49.9137 -49.8646 -49.7387 -49.7114 -49.4749 -49.4362
   -49.3166 -49.2871 -45.1266 -45.0722 -45.0047 -44.8946 -44.7654 -44.7016
   -44.6762 -44.5484 -43.7017 -43.5502 -43.4880 -43.4190 -43.3659 -43.2535
   -28.9695 -28.6226 -28.3971 -28.2197 -23.4087 -22.8182 -14.0992 -13.9512
   -13.8029 -13.7909 -13.7139 -13.4380  -6.2110  -6.1112  -1.2425  -0.1060
     0.6242   1.0760   1.8945   3.6510   4.8771   6.0793   6.3234   7.2981
     8.1835   8.4198  10.2259  11.2313  12.1129  12.6930  13.4364  13.9521
    14.9614  15.6141  16.3126  16.5775  17.7327  18.8186  19.5514  19.8839
    20.1870  20.4616  20.7555  21.0824  21.9024  22.6107  23.1768  23.2499
    23.5379  23.6813  23.9945  24.1045  24.3449  24.6821  24.9229  25.2504
    25.4417  25.8142  26.2733  26.5420  26.7476  27.0311  27.2602  27.3467
    27.4711  27.7665  27.9514  28.1132  28.3127  28.4342  28.6041  28.7268
    28.9045  29.1267  29.2899  29.4660  29.6534  29.7269  30.0171  30.2279
    30.3071  30.5240  30.6567  30.8128  30.9865  31.0854  31.2119  31.4288
    31.6289  31.7662  31.9047  32.1168  32.6727  32.7403  32.9693  33.1151
    33.2775  33.3761  33.6359  33.7441  33.8784  34.1021  34.2077  34.5047
    34.6080  34.8130

     the Fermi energy is    29.5545 ev

!    total energy              =    2894.05393040 Ry
     Harris-Foulkes estimate   =    2894.05393039 Ry
     estimated scf accuracy    <          5.6E-09 Ry

     The total energy is the sum of the following terms:

     one-electron contribution =  -12299.76545207 Ry
     hartree contribution      =    5988.97534817 Ry
     xc contribution           =    -479.47355053 Ry
     ewald contribution        =    9684.31767415 Ry
     smearing contrib. (-TS)   =      -0.00008931 Ry

     convergence has been achieved in  30 iterations

     Forces acting on atoms (cartesian axes, Ry/au):

     atom    1 type  1   force =  1579.74601384  912.12875935   -0.17808201
     atom    2 type  1   force =  1057.39027787 1831.65120374    0.03493531
     atom    3 type  1   force =  -907.22958278 1571.33547021   -0.51153958
     atom    4 type  1   force =  2114.65661180   -0.02772029   -0.00409245
     atom    5 type  1   force =     0.04918310   -0.05258020   -0.20694133
     atom    6 type  1   force = -2114.91263580   -0.04486305   -0.31388232
     atom    7 type  1   force =   907.04980103-1571.18693123   -0.27092328
     atom    8 type  1   force = -1057.45995103-1831.70389944   -0.07902955
     atom    9 type  1   force = -1579.70171071 -911.84451993   -0.35818778
     atom   10 type  1   force =  1579.70573555  911.86397352    0.27656030
     atom   11 type  1   force =  1057.47542554 1831.56271796   -0.11493687
     atom   12 type  1   force =  -907.03992893 1571.14865041    0.25471812
     atom   13 type  1   force =  2114.77748617    0.14940702   -0.03044188
     atom   14 type  1   force =     0.09174927    0.12721801    0.12892935
     atom   15 type  1   force = -2114.76926269    0.05737923    0.11323785
     atom   16 type  1   force =   907.24318535-1571.28511317    0.46064354
     atom   17 type  1   force = -1057.40953932-1831.82426519   -0.09829835
     atom   18 type  1   force = -1579.81955344 -912.17684611    0.28511476
     atom   19 type  2   force =     0.14013152    0.14121516    0.36121904
     atom   20 type  3   force =     0.00856071   -0.10184805    0.14893289
     atom   21 type  3   force =     0.00800294    0.08259207    0.10206422

     Total force =  7890.390137     Total SCF correction =     0.000583

     number of scf cycles    =   2
     number of bfgs steps    =   1

     energy   old            = ****************** Ry
     energy   new            =    2894.0539303969 Ry

     CASE: energy  _new > energy  _old

     new trust radius        =       0.2500686442 bohr
     new conv_thr            =       0.0000000100 Ry


ATOMIC_POSITIONS (angstrom)
Ru       0.114601703   1.628417372  -0.000000000
Ru       2.737935243   1.617738893   0.000000000
Ru       5.347729164   1.673225696  -0.000000000
Ru       1.417020836   3.905630230   0.000000000
Ru       4.058850000   3.905630230  -0.000000000
Ru       6.700679164   3.905630230   0.000000000
Ru       2.769970836   6.138034764  -0.000000000
Ru       5.379764757   6.193521567   0.000000000
Ru       8.003098297   6.182843088  -0.000000000
Ru       0.114601703   0.066165282   2.140750000
Ru       2.737935243   0.055486803   2.140750000
Ru       5.347729164   0.110973606   2.140750000
Ru       1.417020836   2.343378140   2.140750000
Ru       4.058850000   2.343378140   2.140750000
Ru       6.700679164   2.343378140   2.140750000
Ru       2.769970836   4.575782674   2.140750000
Ru       5.379764757   4.631269477   2.140750000
Ru       8.003098297   4.620590998   2.140750000
N        2.705900000   1.562252090   3.340750000
H        2.705900000   0.755810090   3.978353000
H        2.705900000   2.368694090   3.978353000



     Writing output data file Ruthenium4x3x2-NH2_RPBE.save
     NEW-OLD atomic charge density approx. for the potential

     Check: negative/imaginary core charge=   -0.000073    0.000000

     total cpu time spent up to now is      513.0 secs

     per-process dynamical memory:    34.1 Mb

     Self-consistent Calculation

     iteration #  1     ecut=    30.00 Ry     beta=0.70
     Davidson diagonalization with overlap
     c_bands:  1 eigenvalues not converged
     c_bands:  1 eigenvalues not converged
     ethr =  1.00E-06,  avg # of iterations = 18.2

     total cpu time spent up to now is      545.2 secs

     total energy              =   14693.49953628 Ry
     Harris-Foulkes estimate   =   14678.55182595 Ry
     estimated scf accuracy    <      18.10501972 Ry

     iteration #  2     ecut=    30.00 Ry     beta=0.70
     Davidson diagonalization with overlap
     ethr =  6.14E-03,  avg # of iterations =  4.0

     total cpu time spent up to now is      556.6 secs

     total energy              =   14704.20577027 Ry
     Harris-Foulkes estimate   =   14628.73054074 Ry
     estimated scf accuracy    <     337.57261108 Ry

     iteration #  3     ecut=    30.00 Ry     beta=0.70
     Davidson diagonalization with overlap
     ethr =  6.14E-03,  avg # of iterations =  4.2

     total cpu time spent up to now is      566.6 secs

     total energy              =   14682.88525643 Ry
     Harris-Foulkes estimate   =   14680.56562555 Ry
     estimated scf accuracy    <       5.36095094 Ry

     iteration #  4     ecut=    30.00 Ry     beta=0.70
     Davidson diagonalization with overlap
     ethr =  1.82E-03,  avg # of iterations =  4.2

     total cpu time spent up to now is      575.5 secs

     total energy              =   14682.72749833 Ry
     Harris-Foulkes estimate   =   14680.63648941 Ry
     estimated scf accuracy    <      10.50465754 Ry

     iteration #  5     ecut=    30.00 Ry     beta=0.70
     Davidson diagonalization with overlap
     ethr =  1.82E-03,  avg # of iterations =  4.8

     total cpu time spent up to now is      584.1 secs

     total energy              =   14682.64005128 Ry
     Harris-Foulkes estimate   =   14680.68776707 Ry
     estimated scf accuracy    <      21.78480210 Ry

     iteration #  6     ecut=    30.00 Ry     beta=0.70
     Davidson diagonalization with overlap
     ethr =  1.82E-03,  avg # of iterations =  2.2

     total cpu time spent up to now is      590.3 secs

     total energy              =   14681.86995689 Ry
     Harris-Foulkes estimate   =   14681.27050129 Ry
     estimated scf accuracy    <       4.57609038 Ry

     iteration #  7     ecut=    30.00 Ry     beta=0.70
     Davidson diagonalization with overlap
     ethr =  1.55E-03,  avg # of iterations =  3.0

     total cpu time spent up to now is      597.0 secs

     total energy              =   14681.65882119 Ry
     Harris-Foulkes estimate   =   14681.40107378 Ry
     estimated scf accuracy    <       1.23096210 Ry

     iteration #  8     ecut=    30.00 Ry     beta=0.70
     Davidson diagonalization with overlap
     ethr =  4.17E-04,  avg # of iterations =  3.8

     total cpu time spent up to now is      604.5 secs

     total energy              =   14681.58284842 Ry
     Harris-Foulkes estimate   =   14681.44249777 Ry
     estimated scf accuracy    <       0.80287828 Ry

     iteration #  9     ecut=    30.00 Ry     beta=0.70
     Davidson diagonalization with overlap
     ethr =  2.72E-04,  avg # of iterations =  2.8

     total cpu time spent up to now is      610.9 secs

     total energy              =   14681.52547766 Ry
     Harris-Foulkes estimate   =   14681.49089188 Ry
     estimated scf accuracy    <       0.17907327 Ry

     iteration # 10     ecut=    30.00 Ry     beta=0.70
     Davidson diagonalization with overlap
     ethr =  6.07E-05,  avg # of iterations =  7.6

     total cpu time spent up to now is      620.1 secs

     total energy              =   14681.51284471 Ry
     Harris-Foulkes estimate   =   14681.50382914 Ry
     estimated scf accuracy    <       0.02803705 Ry

     iteration # 11     ecut=    30.00 Ry     beta=0.70
     Davidson diagonalization with overlap
     ethr =  9.50E-06,  avg # of iterations =  6.8

     total cpu time spent up to now is      630.0 secs

     total energy              =   14681.50965241 Ry
     Harris-Foulkes estimate   =   14681.50332296 Ry
     estimated scf accuracy    <       0.02884161 Ry

     iteration # 12     ecut=    30.00 Ry     beta=0.70
     Davidson diagonalization with overlap
     ethr =  9.50E-06,  avg # of iterations =  2.8

     total cpu time spent up to now is      636.9 secs

     total energy              =   14681.50805775 Ry
     Harris-Foulkes estimate   =   14681.50555506 Ry
     estimated scf accuracy    <       0.01105759 Ry

     iteration # 13     ecut=    30.00 Ry     beta=0.70
     Davidson diagonalization with overlap
     ethr =  3.75E-06,  avg # of iterations =  2.8

     total cpu time spent up to now is      643.7 secs

     total energy              =   14681.50690744 Ry
     Harris-Foulkes estimate   =   14681.50606686 Ry
     estimated scf accuracy    <       0.00458091 Ry

     iteration # 14     ecut=    30.00 Ry     beta=0.70
     Davidson diagonalization with overlap
     ethr =  1.55E-06,  avg # of iterations =  2.6

     total cpu time spent up to now is      650.3 secs

     total energy              =   14681.50666261 Ry
     Harris-Foulkes estimate   =   14681.50630675 Ry
     estimated scf accuracy    <       0.00170321 Ry

     iteration # 15     ecut=    30.00 Ry     beta=0.70
     Davidson diagonalization with overlap
     ethr =  5.77E-07,  avg # of iterations =  2.4

     total cpu time spent up to now is      656.8 secs

     total energy              =   14681.50657719 Ry
     Harris-Foulkes estimate   =   14681.50635833 Ry
     estimated scf accuracy    <       0.00156271 Ry

     iteration # 16     ecut=    30.00 Ry     beta=0.70
     Davidson diagonalization with overlap
     ethr =  5.30E-07,  avg # of iterations =  2.0

     total cpu time spent up to now is      662.9 secs

     total energy              =   14681.50661051 Ry
     Harris-Foulkes estimate   =   14681.50628148 Ry
     estimated scf accuracy    <       0.00407842 Ry

     iteration # 17     ecut=    30.00 Ry     beta=0.70
     Davidson diagonalization with overlap
     ethr =  5.30E-07,  avg # of iterations =  1.4

     total cpu time spent up to now is      668.6 secs

     total energy              =   14681.50646648 Ry
     Harris-Foulkes estimate   =   14681.50641572 Ry
     estimated scf accuracy    <       0.00024392 Ry

     iteration # 18     ecut=    30.00 Ry     beta=0.70
     Davidson diagonalization with overlap
     ethr =  8.27E-08,  avg # of iterations =  2.8

     total cpu time spent up to now is      675.4 secs

     total energy              =   14681.50644716 Ry
     Harris-Foulkes estimate   =   14681.50642574 Ry
     estimated scf accuracy    <       0.00009995 Ry

     iteration # 19     ecut=    30.00 Ry     beta=0.70
     Davidson diagonalization with overlap
     ethr =  3.39E-08,  avg # of iterations =  2.8

     total cpu time spent up to now is      682.2 secs

     total energy              =   14681.50644240 Ry
     Harris-Foulkes estimate   =   14681.50642610 Ry
     estimated scf accuracy    <       0.00008400 Ry

     iteration # 20     ecut=    30.00 Ry     beta=0.70
     Davidson diagonalization with overlap
     ethr =  2.85E-08,  avg # of iterations =  2.0

     total cpu time spent up to now is      688.6 secs

     total energy              =   14681.50643619 Ry
     Harris-Foulkes estimate   =   14681.50643200 Ry
     estimated scf accuracy    <       0.00001777 Ry

     iteration # 21     ecut=    30.00 Ry     beta=0.70
     Davidson diagonalization with overlap
     ethr =  6.02E-09,  avg # of iterations =  2.0

     total cpu time spent up to now is      695.1 secs

     total energy              =   14681.50643432 Ry
     Harris-Foulkes estimate   =   14681.50643287 Ry
     estimated scf accuracy    <       0.00000673 Ry

     iteration # 22     ecut=    30.00 Ry     beta=0.70
     Davidson diagonalization with overlap
     ethr =  2.28E-09,  avg # of iterations =  2.0

     total cpu time spent up to now is      701.5 secs

     total energy              =   14681.50643378 Ry
     Harris-Foulkes estimate   =   14681.50643336 Ry
     estimated scf accuracy    <       0.00000142 Ry

     iteration # 23     ecut=    30.00 Ry     beta=0.70
     Davidson diagonalization with overlap
     ethr =  4.81E-10,  avg # of iterations =  3.0

     total cpu time spent up to now is      708.8 secs

     total energy              =   14681.50643376 Ry
     Harris-Foulkes estimate   =   14681.50643328 Ry
     estimated scf accuracy    <       0.00000272 Ry

     iteration # 24     ecut=    30.00 Ry     beta=0.70
     Davidson diagonalization with overlap
     ethr =  4.81E-10,  avg # of iterations =  3.0

     total cpu time spent up to now is      715.8 secs

     total energy              =   14681.50643358 Ry
     Harris-Foulkes estimate   =   14681.50643343 Ry
     estimated scf accuracy    <       0.00000086 Ry

     iteration # 25     ecut=    30.00 Ry     beta=0.70
     Davidson diagonalization with overlap
     ethr =  2.92E-10,  avg # of iterations =  2.8

     total cpu time spent up to now is      722.4 secs

     total energy              =   14681.50643352 Ry
     Harris-Foulkes estimate   =   14681.50643347 Ry
     estimated scf accuracy    <       0.00000026 Ry

     iteration # 26     ecut=    30.00 Ry     beta=0.70
     Davidson diagonalization with overlap
     ethr =  8.78E-11,  avg # of iterations =  2.6

     total cpu time spent up to now is      729.2 secs

     total energy              =   14681.50643353 Ry
     Harris-Foulkes estimate   =   14681.50643346 Ry
     estimated scf accuracy    <       0.00000064 Ry

     iteration # 27     ecut=    30.00 Ry     beta=0.70
     Davidson diagonalization with overlap
     ethr =  8.78E-11,  avg # of iterations =  2.0

     total cpu time spent up to now is      735.6 secs

     total energy              =   14681.50643350 Ry
     Harris-Foulkes estimate   =   14681.50643348 Ry
     estimated scf accuracy    <       0.00000011 Ry

     iteration # 28     ecut=    30.00 Ry     beta=0.70
     Davidson diagonalization with overlap
     ethr =  3.85E-11,  avg # of iterations =  2.0

     total cpu time spent up to now is      742.0 secs

     total energy              =   14681.50643349 Ry
     Harris-Foulkes estimate   =   14681.50643348 Ry
     estimated scf accuracy    <       0.00000005 Ry

     iteration # 29     ecut=    30.00 Ry     beta=0.70
     Davidson diagonalization with overlap
     ethr =  1.76E-11,  avg # of iterations =  2.0

     total cpu time spent up to now is      748.0 secs

     total energy              =   14681.50643349 Ry
     Harris-Foulkes estimate   =   14681.50643349 Ry
     estimated scf accuracy    <       0.00000003 Ry

     iteration # 30     ecut=    30.00 Ry     beta=0.70
     Davidson diagonalization with overlap
     ethr =  9.21E-12,  avg # of iterations =  2.0

     total cpu time spent up to now is      754.4 secs

     total energy              =   14681.50643349 Ry
     Harris-Foulkes estimate   =   14681.50643349 Ry
     estimated scf accuracy    <       0.00000001 Ry

     iteration # 31     ecut=    30.00 Ry     beta=0.70
     Davidson diagonalization with overlap
     ethr =  4.72E-12,  avg # of iterations =  2.0

     total cpu time spent up to now is      760.8 secs

     End of self-consistent calculation

          k = 0.0000 0.0000 0.0000 (  4031 PWs)   bands (ev):

  -307.1924-307.1440-299.6966-299.6410-289.4553-289.3936-288.3243-288.2348
  -235.0044-234.9338-231.7511-231.2783-230.6412-230.5934-219.0297-218.9889
  -218.8608-218.7438-134.3987-134.2192-133.9303-133.8340-113.1461-112.8588
  -112.6620-112.5925-112.5854-112.4572-112.3133-112.2476-109.6640-109.4649
  -109.1822-109.0634 -76.3287 -76.0099 -75.3269 -75.0573 -73.6681 -73.4492
   -72.3484 -72.1327 -71.7093 -71.6626 -71.4305 -71.3601 -71.3025 -70.4706
   -57.0931 -57.0686 -56.9431 -56.9084 -56.6982 -56.5754 -56.5099 -56.4554
   -55.6764 -55.4257 -55.2864 -55.1880 -55.1057 -54.9985 -54.9774 -54.8493
   -54.8201 -54.6993 -54.4892 -54.3774 -44.2672 -44.1123 -37.5677 -37.3451
   -36.9983 -36.8002 -36.6702 -36.5753 -32.6086 -32.4794 -27.5332 -26.4722
   -25.4319 -24.8224 -21.1100 -20.0623 -18.9132 -18.7681 -17.4483 -17.3322
   -14.7009 -14.6784 -14.5150 -14.3879 -14.3127 -14.0265   3.1326   5.0325
     5.9902   9.7166  10.7460  10.8118  13.3757  13.7443  14.7960  15.4413
    15.9072  16.0252  16.3817  16.5135  17.4856  18.5829  18.8868  20.6665
    20.9885  21.5812  22.3694  23.0840  23.1063  23.2810  23.4181  23.6376
    24.1796  24.5465  24.8023  25.1277  25.4390  25.5735  25.6454  25.7905
    25.9426  26.1933  26.4432  26.7801  26.9320  27.2331  27.3911  27.4543
    27.5281  28.0064  28.0760  28.2446  28.4657  28.6078  28.7875  28.8787
    29.1526  29.2624  29.4259  29.6290  29.8492  29.9023  29.9787  30.0758
    30.1548  30.3468  30.4693  30.7142  30.8589  30.9314  31.0742  31.2479
    31.3314  31.4057  31.8775  32.0671  32.0863  32.1417  32.2292  32.2654
    32.3034  32.4580  32.6483  32.6974  32.8893  32.9590  33.1341  33.2272
    33.3079  33.5470

          k = 0.0000 0.3849 0.0000 (  4082 PWs)   bands (ev):

  -307.2652-307.1505-299.7084-299.6521-289.6070-289.5027-288.4191-288.2874
  -236.2373-235.3058-231.9078-231.5414-231.2009-230.4598-219.6883-219.5199
  -219.1955-219.0465-134.3990-134.2195-133.9305-133.8343-113.1490-112.8615
  -112.6658-112.5956-112.5895-112.4607-112.3190-112.2527-109.6713-109.4719
  -109.1846-109.0655 -77.3946 -76.7297 -76.4331 -76.1106 -74.4806 -74.2068
   -73.6475 -72.8272 -72.6674 -72.2813 -71.8538 -71.6215 -71.4154 -71.1941
   -57.1582 -57.1358 -56.9457 -56.9271 -56.7847 -56.7068 -56.6225 -56.5785
   -55.7104 -55.4634 -55.3353 -55.2254 -55.1678 -55.0531 -55.0205 -54.9473
   -54.8615 -54.7807 -54.5519 -54.4285 -44.2684 -44.1129 -38.1843 -37.6562
   -37.5021 -37.2816 -36.8043 -36.7166 -34.9592 -33.0255 -27.4480 -27.2378
   -25.9364 -25.2028 -21.6849 -20.9571 -20.1277 -19.2769 -18.2587 -17.7916
   -14.6917 -14.6339 -14.4765 -14.3775 -14.3117 -14.0286   3.0590   4.4372
     5.3963   9.2802   9.9966  12.1795  13.3949  13.8180  14.6455  14.9998
    15.8490  16.3578  16.7462  17.1844  17.6156  18.5412  19.3134  19.8806
    20.6788  21.2046  21.7783  22.1106  22.6471  22.8719  23.1003  23.4958
    23.5647  24.1228  24.4021  24.8334  25.2312  25.5173  25.6186  25.8454
    26.1459  26.4673  26.7490  26.9499  27.0846  27.2767  27.6147  27.6719
    27.7832  27.8842  28.0296  28.1481  28.4344  28.5540  28.7680  28.9279
    29.0093  29.2044  29.4481  29.5054  29.8085  29.9816  30.0966  30.1838
    30.3039  30.4254  30.5815  30.7452  30.8453  30.9277  30.9774  31.0601
    31.2471  31.4553  31.5186  31.5744  31.6793  31.8408  31.8624  32.0277
    32.1378  32.2577  32.3791  32.5247  32.6260  32.7743  32.9759  33.1861
    33.2751  33.4449

          k = 0.3333 0.5774 0.0000 (  4071 PWs)   bands (ev):

  -307.1778-307.1321-299.7094-299.6539-289.5571-289.5092-288.4336-288.3434
  -235.5979-235.3490-231.3737-231.2102-230.6683-230.4985-219.5927-219.4568
  -219.3514-219.2182-134.3989-134.2194-133.9306-133.8343-113.1453-112.8580
  -112.6655-112.5951-112.5859-112.4575-112.3163-112.2500-109.6693-109.4701
  -109.1875-109.0686 -77.1902 -76.9319 -76.6821 -76.4486 -74.0369 -73.3026
   -72.8533 -72.6647 -72.5506 -72.1309 -71.8623 -71.6613 -71.3429 -70.9570
   -57.1558 -57.0476 -56.9655 -56.9054 -56.6682 -56.6211 -56.5603 -56.5326
   -55.6574 -55.4188 -55.3235 -55.2232 -55.0943 -55.0305 -55.0001 -54.9420
   -54.8398 -54.8191 -54.5730 -54.4657 -44.2684 -44.1129 -37.8776 -37.4206
   -37.1729 -37.1337 -36.8837 -36.6515 -33.1157 -32.7789 -26.8112 -25.8160
   -25.7042 -25.1021 -21.6787 -20.7803 -20.0054 -19.6474 -18.2982 -17.9100
   -14.6908 -14.6362 -14.4785 -14.3772 -14.3096 -14.0282   3.1440   4.7770
     5.2255   8.6359  10.3558  12.5543  13.1359  13.6034  15.3198  15.6990
    15.9832  16.2426  16.7733  17.5428  18.2419  18.4600  19.2689  19.7044
    20.4298  21.1121  21.4388  21.9643  22.2655  22.9875  23.3518  23.5511
    24.0179  24.3715  24.5213  24.9404  25.0989  25.2011  25.4496  25.9286
    25.9656  26.3046  26.5456  26.8827  27.2086  27.4274  27.5519  27.7928
    28.1058  28.2419  28.3532  28.5118  28.6782  28.9342  28.9678  29.1766
    29.3190  29.4371  29.5033  29.5537  29.6533  29.8124  29.8695  29.9852
    30.2359  30.4376  30.5498  30.7061  30.8192  30.9832  31.0942  31.1811
    31.3362  31.4550  31.6736  31.7733  31.8670  31.9203  31.9900  32.1106
    32.3509  32.3910  32.4589  32.6096  32.7134  32.8060  33.0175  33.1644
    33.2182  33.3958

          k =-0.3333 0.1925 0.0000 (  4082 PWs)   bands (ev):

  -307.2384-307.1769-299.7080-299.6523-289.5945-289.5141-288.3965-288.3090
  -235.8319-235.6939-231.9098-231.4365-231.0875-230.6709-219.4902-219.4472
  -219.3105-219.1999-134.3989-134.2194-133.9306-133.8344-113.1490-112.8618
  -112.6678-112.5973-112.5894-112.4604-112.3169-112.2513-109.6662-109.4671
  -109.1895-109.0706 -77.1672 -76.7007 -76.4634 -76.2990 -74.6618 -73.7573
   -73.1379 -72.8167 -72.6816 -72.3079 -72.1272 -71.9863 -71.6350 -71.0788
   -57.1901 -57.1232 -57.0084 -56.9739 -56.7244 -56.6853 -56.5832 -56.5719
   -55.7021 -55.4501 -55.3236 -55.2298 -55.1390 -55.0643 -54.9833 -54.9397
   -54.8720 -54.7863 -54.5817 -54.4731 -44.2685 -44.1130 -38.0718 -37.5672
   -37.4142 -37.1736 -36.9820 -36.9412 -34.0519 -33.7569 -27.6498 -26.6308
   -26.2782 -25.3387 -21.7054 -20.9980 -19.6751 -19.5608 -18.2734 -17.8200
   -14.6917 -14.6323 -14.4735 -14.3792 -14.3119 -14.0277   2.7933   4.7268
     5.4828   9.0474   9.8558  12.5158  13.2331  13.5569  14.6908  15.6419
    15.8942  16.3441  16.5457  17.0577  17.6443  18.7869  18.9573  19.7846
    20.5500  21.1159  21.7520  22.4598  22.5532  22.8492  23.1337  23.3243
    23.8695  24.3536  24.5725  24.8544  25.0880  25.4097  25.5893  26.0771
    26.2356  26.5225  26.6332  26.8901  27.0574  27.2977  27.4733  27.6061
    27.7794  27.9844  28.1428  28.3342  28.3926  28.6289  28.7251  28.8455
    29.0818  29.2578  29.3746  29.6658  29.7540  29.8033  30.0305  30.2018
    30.3407  30.5652  30.6073  30.6947  30.7610  30.8795  30.9132  31.0882
    31.2004  31.2340  31.5207  31.5639  31.6314  31.7840  31.8911  32.0635
    32.1630  32.3016  32.4047  32.5124  32.5870  32.6814  33.0171  33.1086
    33.2782  33.4003

          k = 0.3333 0.1925 0.0000 (  4082 PWs)   bands (ev):

  -307.2383-307.1772-299.7081-299.6525-289.5000-289.4473-288.4825-288.3860
  -235.7999-235.6605-231.8687-231.3145-231.1325-230.8078-219.4822-219.4415
  -219.3357-219.1634-134.3990-134.2195-133.9306-133.8344-113.1490-112.8617
  -112.6647-112.5951-112.5888-112.4604-112.3160-112.2505-109.6715-109.4723
  -109.1899-109.0712 -77.4089 -77.0597 -76.4394 -76.2577 -74.0386 -73.6779
   -73.3418 -72.8411 -72.7174 -72.5736 -72.2667 -71.8244 -71.5596 -70.6685
   -57.1598 -57.1111 -56.9769 -56.9599 -56.7206 -56.6520 -56.5619 -56.5308
   -55.7144 -55.4649 -55.3385 -55.2379 -55.1381 -55.0483 -55.0211 -54.9269
   -54.8745 -54.8309 -54.5988 -54.4928 -44.2675 -44.1126 -38.0010 -37.4049
   -37.3484 -37.2662 -37.1356 -36.9744 -34.0470 -33.7575 -27.6602 -26.5628
   -26.2533 -25.4945 -21.6734 -20.7025 -19.7876 -19.2705 -18.1571 -17.9845
   -14.7014 -14.6790 -14.5159 -14.3877 -14.3115 -14.0294   2.8807   4.5933
     5.2808   8.5403  11.2522  11.4596  13.3731  13.5193  14.8901  15.6914
    16.0874  16.2404  17.0480  17.6061  17.8722  18.3364  19.1954  20.2785
    20.9341  21.4402  21.7621  22.5849  22.8912  23.1665  23.3217  23.6678
    24.3094  24.5576  24.6207  24.8439  25.1883  25.4164  25.7575  25.9656
    26.1416  26.1723  26.3942  26.5929  26.8085  27.0282  27.2527  27.5368
    27.5816  27.8672  28.0285  28.2010  28.3636  28.6533  28.7726  28.8942
    29.1774  29.2335  29.3547  29.5708  29.7110  29.8110  29.9423  30.0733
    30.2637  30.4554  30.5457  30.6419  30.7133  30.9447  31.1602  31.2589
    31.4732  31.5336  31.5911  31.6415  31.8856  31.9252  32.1413  32.2135
    32.2812  32.4464  32.5910  32.6514  32.7073  32.7636  32.8897  33.0026
    33.0601  33.2595

     the Fermi energy is    29.5784 ev

!    total energy              =   14681.50643349 Ry
     Harris-Foulkes estimate   =   14681.50643349 Ry
     estimated scf accuracy    <          6.0E-09 Ry

     The total energy is the sum of the following terms:

     one-electron contribution =  -12748.12740791 Ry
     hartree contribution      =    6090.18107918 Ry
     xc contribution           =    -486.11622150 Ry
     ewald contribution        =   21825.56872569 Ry
     smearing contrib. (-TS)   =       0.00025803 Ry

     convergence has been achieved in  31 iterations

     Forces acting on atoms (cartesian axes, Ry/au):

     atom    1 type  1   force =  6904.02090816 3986.26239530   -0.26055468
     atom    2 type  1   force =  4337.93580654 7513.50999365    0.16556189
     atom    3 type  1   force = -3959.35049466 6857.94834809   -0.52167520
     atom    4 type  1   force =  8675.64470612    0.06281655    0.08932341
     atom    5 type  1   force =     0.02818194   -0.04378734   -0.20841043
     atom    6 type  1   force = -8675.82331655   -0.08991116   -0.09274383
     atom    7 type  1   force =  3959.38295210-6857.82354548   -0.01874616
     atom    8 type  1   force = -4338.03391223-7513.58333427    0.01509094
     atom    9 type  1   force = -6904.06609254-3985.94932763   -0.09290044
     atom   10 type  1   force =  6903.94047995 3985.89808158    0.08271181
     atom   11 type  1   force =  4338.04384745 7513.45098423   -0.18032137
     atom   12 type  1   force = -3959.36055011 6857.79733619    0.00475221
     atom   13 type  1   force =  8675.73254039    0.16208235   -0.04044732
     atom   14 type  1   force =     0.11490058    0.11381278    0.11973954
     atom   15 type  1   force = -8675.73694429   -0.04088179   -0.09029936
     atom   16 type  1   force =  3959.34209995-6857.94061027    0.47573188
     atom   17 type  1   force = -4337.98056987-7513.64454695   -0.18379871
     atom   18 type  1   force = -6903.89100994-3986.19064309    0.27776551
     atom   19 type  2   force =     0.02639176    0.09580921    0.21899460
     atom   20 type  3   force =     0.00253782   -0.10146880    0.14133667
     atom   21 type  3   force =     0.02753743    0.10639685    0.09888902

     Total force = 33274.658638     Total SCF correction =     0.000532

     number of scf cycles    =   3
     number of bfgs steps    =   1

     energy   old            = ****************** Ry
     energy   new            =   14681.5064334920 Ry

     CASE: energy  _new > energy  _old

     new trust radius        =       0.1251029663 bohr
     new conv_thr            =       0.0000000100 Ry


ATOMIC_POSITIONS (angstrom)
Ru       0.057332310   1.595352894  -0.000000000
Ru       2.721926415   1.590010723   0.000000000
Ru       5.379746994   1.617769356  -0.000000000
Ru       1.385003006   3.905630230   0.000000000
Ru       4.058850000   3.905630230  -0.000000000
Ru       6.732696994   3.905630230   0.000000000
Ru       2.737953006   6.193491104  -0.000000000
Ru       5.395773585   6.221249737   0.000000000
Ru       8.060367690   6.215907566  -0.000000000
Ru       0.057332310   0.033100804   2.140750000
Ru       2.721926415   0.027758633   2.140750000
Ru       5.379746994   0.055517266   2.140750000
Ru       1.385003006   2.343378140   2.140750000
Ru       4.058850000   2.343378140   2.140750000
Ru       6.732696994   2.343378140   2.140750000
Ru       2.737953006   4.631239014   2.140750000
Ru       5.395773585   4.658997647   2.140750000
Ru       8.060367690   4.653655476   2.140750000
N        2.705900000   1.562252090   3.340750000
H        2.705900000   0.755810090   3.978353000
H        2.705900000   2.368694090   3.978353000



     Writing output data file Ruthenium4x3x2-NH2_RPBE.save
     NEW-OLD atomic charge density approx. for the potential

     Check: negative/imaginary core charge=   -0.000073    0.000000

     total cpu time spent up to now is      762.1 secs

     per-process dynamical memory:    34.1 Mb

     Self-consistent Calculation

     iteration #  1     ecut=    30.00 Ry     beta=0.70
     Davidson diagonalization with overlap
     c_bands:  1 eigenvalues not converged
     c_bands:  1 eigenvalues not converged
     c_bands:  2 eigenvalues not converged
     c_bands:  3 eigenvalues not converged
     ethr =  1.00E-06,  avg # of iterations = 19.6

     total cpu time spent up to now is      789.1 secs

     total energy              =   38874.18915360 Ry
     Harris-Foulkes estimate   =   38871.29613226 Ry
[...]
    27.8246  27.9847  28.1578  28.2752  28.3369  28.6127  28.6953  28.8310
    28.9637  29.0390  29.3333  29.4475  29.5899  29.6639  29.9197  30.0833
    30.1806  30.2923  30.5447  30.7115  30.7580  30.8436  31.0111  31.0560
    31.0970  31.2769  31.3779  31.4746  31.6051  31.8048  31.8640  31.9081
    32.1268  32.2147  32.3722  32.4432  32.5320  32.6520  32.8191  32.9346
    33.0615  33.2316

     the Fermi energy is    29.5405 ev

!    total energy              =  724622.57483855 Ry
     Harris-Foulkes estimate   =  724622.57483854 Ry
     estimated scf accuracy    <          7.7E-09 Ry

     The total energy is the sum of the following terms:

     one-electron contribution =  -12934.20645245 Ry
     hartree contribution      =    6117.16756672 Ry
     xc contribution           =    -488.71859724 Ry
     ewald contribution        =  731928.33399519 Ry
     smearing contrib. (-TS)   =      -0.00167367 Ry

     convergence has been achieved in  10 iterations

     Forces acting on atoms (cartesian axes, Ry/au):

     atom    1 type  1   force = ****************************   -0.13891292
     atom    2 type  1   force = ****************************    0.09223127
     atom    3 type  1   force = ****************************   -0.14979591
     atom    4 type  1   force = **************    0.00393801    0.04711692
     atom    5 type  1   force =     0.02822657   -0.03883962   -0.22023984
     atom    6 type  1   force = **************   -0.00918253    0.03336511
     atom    7 type  1   force = ****************************   -0.10418628
     atom    8 type  1   force = ****************************    0.07954192
     atom    9 type  1   force = ****************************   -0.11394036
     atom   10 type  1   force = ****************************    0.10975451
     atom   11 type  1   force = ****************************   -0.18466320
     atom   12 type  1   force = ****************************    0.09911607
     atom   13 type  1   force = **************    0.06510696   -0.08396387
     atom   14 type  1   force =     0.11589358    0.11345168    0.12380973
     atom   15 type  1   force = **************    0.04024079   -0.09093364
     atom   16 type  1   force = ****************************    0.14004021
     atom   17 type  1   force = ****************************   -0.18715106
     atom   18 type  1   force = ****************************    0.12857491
     atom   19 type  2   force =    -0.01511163    0.08229793    0.17478556
     atom   20 type  3   force =     0.00288921   -0.09407363    0.13898024
     atom   21 type  3   force =     0.03564936    0.11456270    0.10647066

     Total force = ************     Total SCF correction =     0.000674

     number of scf cycles    =  13
     number of bfgs steps    =   3

     energy   old            =  724744.1248308730 Ry
     energy   new            =  724622.5748385516 Ry

     CASE: energy  _new < energy  _old


     WARNING: bfgs curvature condition failed, Theta= 0.000
     new trust radius        =       0.0001651179 bohr
     new conv_thr            =       0.0000000100 Ry


ATOMIC_POSITIONS (angstrom)
Ru       0.003060062   1.564018822  -0.000000000
Ru       2.707423852   1.564891486   0.000000000
Ru       5.409922180   1.565504571  -0.000000000
Ru       1.355997695   3.905630230   0.000000000
Ru       4.058850000   3.905630230  -0.000000000
Ru       6.761702305   3.905630230   0.000000000
Ru       2.707777820   6.245755890  -0.000000000
Ru       5.410276148   6.246368974   0.000000000
Ru       8.114639938   6.247241638  -0.000000000
Ru       0.003060062   0.001766732   2.140750000
Ru       2.707423852   0.002639396   2.140750000
Ru       5.409922180   0.003252480   2.140750000
Ru       1.355997695   2.343378140   2.140750000
Ru       4.058850000   2.343378140   2.140750000
Ru       6.761702305   2.343378140   2.140750000
Ru       2.707777820   4.683503799   2.140750000
Ru       5.410276148   4.684116884   2.140750000
Ru       8.114639938   4.684989548   2.140750000
N        2.705900000   1.562252090   3.340750000
H        2.705900000   0.755810090   3.978353000
H        2.705900000   2.368694090   3.978353000



     Writing output data file Ruthenium4x3x2-NH2_RPBE.save
     NEW-OLD atomic charge density approx. for the potential

     Check: negative/imaginary core charge=   -0.000073    0.000000

     total cpu time spent up to now is     2155.8 secs

     per-process dynamical memory:    34.1 Mb

     Self-consistent Calculation

     iteration #  1     ecut=    30.00 Ry     beta=0.70
     Davidson diagonalization with overlap
     ethr =  1.00E-06,  avg # of iterations =  2.0

     Threshold (ethr) on eigenvalues was too large:
     Diagonalizing with lowered threshold

     Davidson diagonalization with overlap
     ethr =  2.20E-10,  avg # of iterations =  1.0

     total cpu time spent up to now is     2167.3 secs

     total energy              =  724385.89060679 Ry
     Harris-Foulkes estimate   =  724385.89060620 Ry
     estimated scf accuracy    <       0.00000068 Ry

     iteration #  2     ecut=    30.00 Ry     beta=0.70
     Davidson diagonalization with overlap
     ethr =  2.30E-10,  avg # of iterations =  4.6

     total cpu time spent up to now is     2176.9 secs

     total energy              =  724385.89060910 Ry
     Harris-Foulkes estimate   =  724385.89060330 Ry
     estimated scf accuracy    <       0.00003942 Ry

     iteration #  3     ecut=    30.00 Ry     beta=0.70
     Davidson diagonalization with overlap
     ethr =  2.30E-10,  avg # of iterations =  5.0

     total cpu time spent up to now is     2186.7 secs

     total energy              =  724385.89060639 Ry
     Harris-Foulkes estimate   =  724385.89060615 Ry
     estimated scf accuracy    <       0.00000319 Ry

     iteration #  4     ecut=    30.00 Ry     beta=0.70
     Davidson diagonalization with overlap
     ethr =  2.30E-10,  avg # of iterations =  1.8

     total cpu time spent up to now is     2192.6 secs

     total energy              =  724385.89060629 Ry
     Harris-Foulkes estimate   =  724385.89060625 Ry
     estimated scf accuracy    <       0.00000045 Ry

     iteration #  5     ecut=    30.00 Ry     beta=0.70
     Davidson diagonalization with overlap
     ethr =  1.51E-10,  avg # of iterations =  1.0

     total cpu time spent up to now is     2198.2 secs

     total energy              =  724385.89060627 Ry
     Harris-Foulkes estimate   =  724385.89060626 Ry
     estimated scf accuracy    <       0.00000005 Ry

     iteration #  6     ecut=    30.00 Ry     beta=0.70
     Davidson diagonalization with overlap
     ethr =  1.75E-11,  avg # of iterations =  3.2

     total cpu time spent up to now is     2205.3 secs

     total energy              =  724385.89060626 Ry
     Harris-Foulkes estimate   =  724385.89060626 Ry
     estimated scf accuracy    <       0.00000001 Ry

     iteration #  7     ecut=    30.00 Ry     beta=0.70
     Davidson diagonalization with overlap
     ethr =  3.75E-12,  avg # of iterations =  2.0

     total cpu time spent up to now is     2211.4 secs

     End of self-consistent calculation

          k = 0.0000 0.0000 0.0000 (  4031 PWs)   bands (ev):

  -319.8311-319.8118-319.7166-319.6569-319.5472-319.4805-308.3877-308.3481
  -271.8738-271.5032-271.0760-271.0512-270.7930-270.7633-270.6125-270.5192
  -270.3343-269.9708-134.9052-134.7931-134.4883-134.4288-114.3364-114.2122
  -114.2085-114.0874-113.9120-113.8514-113.7931-113.7157-113.7092-113.6053
  -113.3248-113.2554 -77.6912 -76.7956 -76.7103 -76.4691 -76.3967 -76.3384
   -76.0882 -76.0600 -75.9094 -75.6849 -75.1491 -74.9296 -74.7687 -74.6040
   -59.6661 -59.6064 -59.5195 -59.5006 -59.3121 -59.2839 -59.2734 -59.2098
   -59.1672 -59.1119 -59.0652 -58.9745 -58.9554 -58.8844 -58.7707 -58.7130
   -58.6935 -58.6331 -58.6059 -58.5334 -47.7030 -46.2459 -45.3993 -45.2426
   -45.0702 -44.8382 -44.7295 -44.5366 -44.2874 -44.2289 -44.0641 -43.3206
   -31.7493 -31.1381 -30.8552 -30.8154 -30.6830 -30.1647 -14.7493 -14.6894
   -14.4865 -14.3809 -14.2918 -14.0434  -9.8642  -9.0085  -6.4276  -3.9676
     5.3268   9.0980  11.1868  11.2696  13.5322  13.7185  15.1224  15.7028
    16.0947  16.5861  16.9797  17.3720  17.7555  18.5540  18.9572  20.4550
    20.7486  21.0667  21.8019  22.7603  22.8460  23.1176  23.2610  23.3528
    23.9608  24.3239  24.8250  25.0058  25.2312  25.3660  25.4536  25.7797
    26.1271  26.2712  26.6035  26.8015  26.8409  27.2114  27.3525  27.6886
    27.8255  27.9676  28.4507  28.5501  28.6597  28.7894  28.9159  29.0978
    29.1817  29.4156  29.4967  29.6956  29.7674  30.0469  30.1541  30.2177
    30.4472  30.4615  30.5225  30.6766  30.7102  30.8293  30.9530  30.9671
    31.0684  31.1811  31.4966  31.5396  31.6363  31.8790  31.9168  31.9669
    32.1246  32.2414  32.3354  32.4280  32.5820  32.6413  32.7038  32.8368
    33.0947  33.2899

          k = 0.0000 0.3849 0.0000 (  4082 PWs)   bands (ev):

  -319.9014-319.8304-319.7482-319.6697-319.6043-319.5239-308.3940-308.3540
  -272.7248-272.4490-272.1438-272.0959-271.8996-271.5336-271.0764-270.7426
  -270.6597-270.4622-134.9054-134.7933-134.4885-134.4290-114.3395-114.2183
  -114.2126-114.0905-113.9147-113.8549-113.7966-113.7182-113.7114-113.6073
  -113.3290-113.2593 -78.4702 -78.3453 -78.1105 -77.9849 -77.3246 -77.1817
   -77.0451 -76.8364 -76.4564 -76.2132 -75.8094 -75.4914 -75.4350 -75.2498
   -59.7412 -59.6919 -59.5906 -59.5535 -59.3558 -59.3232 -59.2987 -59.2822
   -59.2010 -59.1664 -59.0916 -59.0630 -59.0136 -58.9445 -58.9079 -58.8296
   -58.7807 -58.7229 -58.6341 -58.5674 -48.6292 -47.9859 -47.6892 -47.4661
   -47.1956 -46.4437 -45.5187 -44.7456 -44.6476 -44.3852 -44.3020 -44.0807
   -31.9756 -31.2390 -31.1322 -30.9027 -30.7617 -30.2885 -14.7862 -14.7310
   -14.5380 -14.3846 -14.2912 -14.0374 -13.1814 -10.5261  -6.4448  -4.2850
     5.2799   9.2811  10.0032  12.7019  13.4136  13.7353  15.0503  15.6550
    16.3139  16.4980  16.8040  17.2388  17.5555  18.4020  19.3379  20.1076
    20.7228  21.2742  21.9623  22.1963  22.4789  22.9414  23.1410  23.5300
    23.8094  24.0734  24.3493  24.8253  25.1074  25.3524  25.5841  25.7772
    26.1971  26.4205  26.5957  26.8827  27.1542  27.5240  27.6182  27.7905
    27.9755  28.0776  28.2138  28.2348  28.4073  28.5129  28.7199  28.8277
    28.9986  29.1061  29.2137  29.4856  29.6459  29.8682  30.0106  30.0788
    30.2408  30.3144  30.4629  30.5712  30.6305  30.6722  30.7802  30.8816
    31.0388  31.1007  31.1841  31.3042  31.3670  31.4900  31.6713  31.7474
    31.8180  31.9487  32.0413  32.3581  32.3982  32.5593  32.6674  32.8685
    33.0380  33.1968

          k = 0.3333 0.5774 0.0000 (  4071 PWs)   bands (ev):

  -319.8484-319.8227-319.7524-319.6941-319.5667-319.5072-308.3920-308.3524
  -272.1144-271.9150-271.8095-271.7424-271.3243-271.2270-271.0385-270.9906
  -270.6755-270.5144-134.9054-134.7933-134.4885-134.4290-114.3364-114.2141
  -114.2118-114.0876-113.9138-113.8546-113.7942-113.7157-113.7119-113.6084
  -113.3277-113.2584 -78.4504 -77.4861 -77.4289 -77.1418 -77.0719 -76.8683
   -76.8045 -76.6174 -76.4976 -76.3675 -76.1704 -75.6716 -75.1869 -74.6490
   -59.6707 -59.6083 -59.5589 -59.5285 -59.3321 -59.2850 -59.2404 -59.1816
   -59.1640 -59.1384 -59.0987 -59.0558 -58.9851 -58.9321 -58.8914 -58.8392
   -58.7218 -58.6680 -58.6233 -58.5813 -47.4858 -47.1354 -46.9793 -46.7978
   -46.2333 -45.9901 -45.6010 -45.3189 -44.8218 -44.3080 -44.2685 -44.0814
   -31.7773 -31.1330 -31.0592 -30.9967 -30.8060 -30.2255 -14.7858 -14.7307
   -14.5374 -14.3836 -14.2897 -14.0370 -11.4061 -10.6835  -6.5220  -4.1450
     5.2541   9.0598  10.1222  12.7550  13.2965  13.8860  15.4499  15.7693
    16.0738  16.4531  16.9831  17.1771  17.6825  18.3148  19.4321  20.0931
    20.5458  21.3704  21.6727  22.1657  22.6747  22.9904  23.4754  23.6080
    24.0840  24.4914  24.6583  24.8615  25.0923  25.1324  25.6421  25.7498
    25.8455  26.2611  26.7833  26.8716  27.1333  27.4341  27.5959  27.8849
    28.0375  28.1410  28.2318  28.5427  28.6386  28.7795  28.8454  28.9772
    29.1749  29.2701  29.4588  29.5945  29.6839  29.7638  29.9064  30.0869
    30.1659  30.3710  30.4769  30.5519  30.6249  30.7219  30.9063  30.9386
    31.0378  31.1246  31.2673  31.4047  31.5326  31.6894  31.7951  31.9195
    32.0430  32.1509  32.2044  32.4492  32.5633  32.7200  32.7879  32.9150
    33.0969  33.2342

          k =-0.3333 0.1925 0.0000 (  4082 PWs)   bands (ev):

  -319.8631-319.8514-319.7703-319.7109-319.5741-319.5062-308.3935-308.3538
  -272.4045-272.1899-272.0390-271.9236-271.7046-271.4983-271.4123-271.2541
  -270.7623-270.5511-134.9054-134.7933-134.4885-134.4290-114.3391-114.2139
  -114.2121-114.0902-113.9165-113.8572-113.7969-113.7186-113.7137-113.6097
  -113.3270-113.2577 -78.5355 -78.1889 -77.8143 -77.4499 -77.4286 -77.0939
   -76.9515 -76.7311 -76.5822 -76.3832 -76.0814 -76.0264 -75.9459 -74.6963
   -59.6941 -59.6522 -59.5690 -59.5243 -59.3550 -59.3302 -59.3107 -59.2612
   -59.2291 -59.1960 -59.1473 -59.0990 -59.0313 -58.9453 -58.9089 -58.8078
   -58.7374 -58.7169 -58.6396 -58.6052 -48.4407 -47.8321 -47.2140 -47.0006
   -46.5347 -46.3027 -46.0932 -45.8495 -44.9000 -44.3675 -44.3065 -44.0833
   -31.8918 -31.2314 -31.1036 -31.0361 -30.7766 -30.2597 -14.7862 -14.7320
   -14.5375 -14.3841 -14.2914 -14.0375 -12.5119 -11.1328  -6.6014  -4.1823
     5.2765   9.2216   9.9467  12.7603  13.3627  13.6166  15.3465  15.9124
    16.2029  16.4329  16.8297  17.0905  17.5824  18.6608  19.0105  19.9695
    20.8380  21.2287  21.7891  22.3846  22.7446  22.8773  23.1829  23.3847
    23.8907  24.1530  24.2637  24.8657  24.9988  25.4471  25.5786  25.9566
    26.1156  26.4024  26.5516  26.9537  27.2101  27.4237  27.5735  27.7049
    27.9081  28.0871  28.3346  28.3671  28.4731  28.5849  28.6730  28.7970
    28.9244  29.1998  29.4177  29.5539  29.6918  29.7869  29.8995  30.0114
    30.1909  30.3196  30.3739  30.4607  30.6110  30.6614  30.7329  30.9068
    31.0118  31.1203  31.2537  31.3226  31.3857  31.5223  31.5690  31.7773
    31.8567  31.9448  32.0647  32.1286  32.2906  32.4702  32.6911  32.8806
    33.1012  33.1608

          k = 0.3333 0.1925 0.0000 (  4082 PWs)   bands (ev):

  -319.8591-319.8427-319.7660-319.7102-319.5814-319.5143-308.3936-308.3540
  -272.3917-272.1754-271.9851-271.9580-271.6906-271.5025-271.4055-271.2232
  -270.7318-270.5765-134.9054-134.7933-134.4885-134.4290-114.3392-114.2146
  -114.2125-114.0901-113.9154-113.8541-113.7957-113.7192-113.7125-113.6095
  -113.3294-113.2602 -78.5221 -78.1379 -77.8023 -77.4424 -77.4178 -77.0302
   -76.9465 -76.7550 -76.5911 -76.3302 -76.1218 -76.0100 -75.9023 -74.6836
   -59.7015 -59.6821 -59.5685 -59.5525 -59.4152 -59.3215 -59.3068 -59.2628
   -59.1787 -59.1447 -59.0895 -59.0683 -59.0219 -58.9362 -58.8884 -58.7979
   -58.7466 -58.7021 -58.6659 -58.6472 -48.3963 -47.7532 -47.1196 -47.0102
   -46.5186 -46.3047 -46.0449 -45.8053 -44.8631 -44.4422 -44.2945 -44.0746
   -31.8909 -31.1928 -31.0822 -31.0190 -30.8630 -30.2667 -14.7484 -14.6891
   -14.4868 -14.3807 -14.2899 -14.0436 -12.4097 -11.0728  -6.7087  -4.2552
     5.2648   8.8417  11.2760  11.3540  13.5965  13.8197  15.2044  15.7737
    16.1234  16.3895  16.8560  17.1503  17.5896  18.8975  19.2891  20.4533
    20.9603  21.3426  21.8905  22.3706  22.8353  23.1382  23.3443  23.6762
    23.9167  24.1794  24.4456  24.6046  24.9137  25.4089  25.6030  25.8881
    26.0005  26.2740  26.6433  26.7751  27.0890  27.3522  27.5718  27.6508
    27.8246  27.9847  28.1579  28.2752  28.3369  28.6126  28.6953  28.8310
    28.9637  29.0390  29.3333  29.4475  29.5899  29.6639  29.9197  30.0834
    30.1807  30.2923  30.5447  30.7116  30.7580  30.8436  31.0111  31.0560
    31.0970  31.2769  31.3779  31.4746  31.6050  31.8048  31.8640  31.9081
    32.1268  32.2147  32.3722  32.4432  32.5320  32.6520  32.8191  32.9346
    33.0615  33.2316

     the Fermi energy is    29.5405 ev

!    total energy              =  724385.89060627 Ry
     Harris-Foulkes estimate   =  724385.89060626 Ry
     estimated scf accuracy    <          3.9E-09 Ry

     The total energy is the sum of the following terms:

     one-electron contribution =  -12934.20537162 Ry
     hartree contribution      =    6117.16674135 Ry
     xc contribution           =    -488.71858960 Ry
     ewald contribution        =  731691.64949961 Ry
     smearing contrib. (-TS)   =      -0.00167347 Ry

     convergence has been achieved in   7 iterations

     Forces acting on atoms (cartesian axes, Ry/au):

     atom    1 type  1   force = ****************************   -0.15660054
     atom    2 type  1   force = ****************************    0.09620206
     atom    3 type  1   force = ****************************   -0.18206823
     atom    4 type  1   force = **************    0.00802848    0.05140659
     atom    5 type  1   force =     0.02822328   -0.03884010   -0.22024273
     atom    6 type  1   force = **************   -0.01329173    0.02906098
     atom    7 type  1   force = ****************************   -0.07308585
     atom    8 type  1   force = ****************************    0.07558274
     atom    9 type  1   force = ****************************   -0.09508541
     atom   10 type  1   force = ****************************    0.09556268
     atom   11 type  1   force = ****************************   -0.18388484
     atom   12 type  1   force = ****************************    0.07111719
     atom   13 type  1   force = **************    0.07287644   -0.08179149
     atom   14 type  1   force =     0.11588907    0.11345524    0.12380906
     atom   15 type  1   force = **************    0.03247084   -0.09311690
     atom   16 type  1   force = ****************************    0.16890373
     atom   17 type  1   force = ****************************   -0.18792788
     atom   18 type  1   force = ****************************    0.14192317
     atom   19 type  2   force =    -0.01511409    0.08229966    0.17478437
     atom   20 type  3   force =     0.00288818   -0.09407357    0.13898112
     atom   21 type  3   force =     0.03564815    0.11456348    0.10647019

     Total force = ************     Total SCF correction =     0.000343

     number of scf cycles    =  14
     number of bfgs steps    =   4

     energy   old            =  724622.5748385520 Ry
     energy   new            =  724385.8906062663 Ry

     CASE: energy  _new < energy  _old


     WARNING: bfgs curvature condition failed, Theta= 0.000
     new trust radius        =       0.0002476769 bohr
     new conv_thr            =       0.0000000100 Ry


ATOMIC_POSITIONS (angstrom)
Ru       0.002949376   1.563954918  -0.000000000
Ru       2.707424314   1.564892285   0.000000000
Ru       5.409856650   1.565618077  -0.000000000
Ru       1.355998618   3.905630230   0.000000000
Ru       4.058850000   3.905630230  -0.000000000
Ru       6.761701382   3.905630230   0.000000000
Ru       2.707843350   6.245642383  -0.000000000
Ru       5.410275686   6.246368175   0.000000000
Ru       8.114750624   6.247305542  -0.000000000
Ru       0.002949376   0.001702828   2.140750000
Ru       2.707424314   0.002640195   2.140750000
Ru       5.409856650   0.003365987   2.140750000
Ru       1.355998618   2.343378140   2.140750000
Ru       4.058850000   2.343378140   2.140750000
Ru       6.761701382   2.343378140   2.140750000
Ru       2.707843350   4.683390293   2.140750000
Ru       5.410275686   4.684116084   2.140750000
Ru       8.114750624   4.685053452   2.140750000
N        2.705900000   1.562252090   3.340750000
H        2.705900000   0.755810090   3.978353000
H        2.705900000   2.368694090   3.978353000



     Writing output data file Ruthenium4x3x2-NH2_RPBE.save
     NEW-OLD atomic charge density approx. for the potential

     Check: negative/imaginary core charge=   -0.000073    0.000000

     total cpu time spent up to now is     2212.7 secs

     per-process dynamical memory:    34.1 Mb

     Self-consistent Calculation

     iteration #  1     ecut=    30.00 Ry     beta=0.70
     Davidson diagonalization with overlap
